<?xml version="1.0" encoding="UTF-8"?>

<!-- generated on Tuesday 19 September 2017 05:32:41 PM IST by SUMO gui Version 0.30.0
<?xml version="1.0" encoding="UTF-8"?>

<configuration xmlns:xsi="http://www.w3.org/2001/XMLSchema-instance" xsi:noNamespaceSchemaLocation="http://sumo.dlr.de/xsd/sumoConfiguration.xsd">

    <input>
        <net-file value="hello.net.xml"/>
        <route-files value="hello.rou.xml"/>
        <additional-files value="hello.det.xml"/>
    </input>

    <output>
        <tripinfo-output value="tripinfo.xml"/>
    </output>

    <time>
        <begin value="0"/>
        <end value="10000"/>
    </time>

    <traci_server>
        <remote-port value="45907"/>
    </traci_server>

    <gui_only>
        <gui-settings-file value="hello.settings.xml"/>
    </gui_only>

</configuration>
-->

<detector xmlns:xsi="http://www.w3.org/2001/XMLSchema-instance" xsi:noNamespaceSchemaLocation="http://sumo.dlr.de/xsd/det_e1_file.xsd">
    <interval begin="0.00" end="30.00" id="0" nVehContrib="0" flow="0.00" occupancy="37.17" speed="-1.00" length="-1.00" nVehEntered="1"/>
    <interval begin="0.00" end="30.00" id="1" nVehContrib="1" flow="120.00" occupancy="2.05" speed="8.12" length="5.00" nVehEntered="1"/>
    <interval begin="0.00" end="30.00" id="2" nVehContrib="1" flow="120.00" occupancy="2.07" speed="8.05" length="5.00" nVehEntered="2"/>
    <interval begin="0.00" end="30.00" id="3" nVehContrib="2" flow="240.00" occupancy="4.17" speed="7.99" length="5.00" nVehEntered="2"/>
    <interval begin="0.00" end="30.00" id="4" nVehContrib="2" flow="240.00" occupancy="4.44" speed="7.50" length="5.00" nVehEntered="2"/>
    <interval begin="0.00" end="30.00" id="5" nVehContrib="2" flow="240.00" occupancy="4.61" speed="7.23" length="5.00" nVehEntered="2"/>
    <interval begin="0.00" end="30.00" id="6" nVehContrib="2" flow="240.00" occupancy="4.81" speed="6.94" length="5.00" nVehEntered="2"/>
    <interval begin="0.00" end="30.00" id="7" nVehContrib="2" flow="240.00" occupancy="5.13" speed="6.50" length="5.00" nVehEntered="2"/>
    <interval begin="0.00" end="30.00" id="8" nVehContrib="2" flow="240.00" occupancy="5.48" speed="6.08" length="5.00" nVehEntered="2"/>
    <interval begin="0.00" end="30.00" id="9" nVehContrib="2" flow="240.00" occupancy="5.87" speed="5.68" length="5.00" nVehEntered="2"/>
    <interval begin="0.00" end="30.00" id="10" nVehContrib="2" flow="240.00" occupancy="6.38" speed="5.23" length="5.00" nVehEntered="2"/>
    <interval begin="0.00" end="30.00" id="11" nVehContrib="2" flow="240.00" occupancy="7.05" speed="4.73" length="5.00" nVehEntered="2"/>
    <interval begin="0.00" end="30.00" id="12" nVehContrib="2" flow="240.00" occupancy="10.56" speed="4.18" length="5.00" nVehEntered="3"/>
    <interval begin="0.00" end="30.00" id="13" nVehContrib="3" flow="360.00" occupancy="14.25" speed="3.51" length="5.00" nVehEntered="3"/>
    <interval begin="0.00" end="30.00" id="14" nVehContrib="3" flow="360.00" occupancy="18.50" speed="2.70" length="5.00" nVehEntered="3"/>
    <interval begin="0.00" end="30.00" id="15" nVehContrib="3" flow="360.00" occupancy="49.50" speed="1.01" length="5.00" nVehEntered="3"/>
    <interval begin="0.00" end="30.00" id="100" nVehContrib="0" flow="0.00" occupancy="3.84" speed="-1.00" length="-1.00" nVehEntered="1"/>
    <interval begin="0.00" end="30.00" id="101" nVehContrib="1" flow="120.00" occupancy="2.05" speed="8.12" length="5.00" nVehEntered="1"/>
    <interval begin="0.00" end="30.00" id="102" nVehContrib="1" flow="120.00" occupancy="4.11" speed="4.05" length="5.00" nVehEntered="1"/>
    <interval begin="0.00" end="30.00" id="103" nVehContrib="0" flow="0.00" occupancy="0.00" speed="-1.00" length="-1.00" nVehEntered="0"/>
    <interval begin="0.00" end="30.00" id="104" nVehContrib="0" flow="0.00" occupancy="0.00" speed="-1.00" length="-1.00" nVehEntered="0"/>
    <interval begin="0.00" end="30.00" id="105" nVehContrib="0" flow="0.00" occupancy="0.00" speed="-1.00" length="-1.00" nVehEntered="0"/>
    <interval begin="0.00" end="30.00" id="106" nVehContrib="0" flow="0.00" occupancy="0.00" speed="-1.00" length="-1.00" nVehEntered="0"/>
    <interval begin="0.00" end="30.00" id="107" nVehContrib="0" flow="0.00" occupancy="0.00" speed="-1.00" length="-1.00" nVehEntered="0"/>
    <interval begin="0.00" end="30.00" id="108" nVehContrib="0" flow="0.00" occupancy="0.00" speed="-1.00" length="-1.00" nVehEntered="0"/>
    <interval begin="0.00" end="30.00" id="109" nVehContrib="0" flow="0.00" occupancy="0.00" speed="-1.00" length="-1.00" nVehEntered="0"/>
    <interval begin="0.00" end="30.00" id="110" nVehContrib="0" flow="0.00" occupancy="0.00" speed="-1.00" length="-1.00" nVehEntered="0"/>
    <interval begin="0.00" end="30.00" id="111" nVehContrib="0" flow="0.00" occupancy="0.00" speed="-1.00" length="-1.00" nVehEntered="0"/>
    <interval begin="0.00" end="30.00" id="112" nVehContrib="0" flow="0.00" occupancy="0.00" speed="-1.00" length="-1.00" nVehEntered="0"/>
    <interval begin="0.00" end="30.00" id="113" nVehContrib="0" flow="0.00" occupancy="0.00" speed="-1.00" length="-1.00" nVehEntered="0"/>
    <interval begin="0.00" end="30.00" id="114" nVehContrib="0" flow="0.00" occupancy="0.00" speed="-1.00" length="-1.00" nVehEntered="0"/>
    <interval begin="0.00" end="30.00" id="115" nVehContrib="0" flow="0.00" occupancy="0.00" speed="-1.00" length="-1.00" nVehEntered="0"/>
    <interval begin="0.00" end="30.00" id="200" nVehContrib="0" flow="0.00" occupancy="0.00" speed="-1.00" length="-1.00" nVehEntered="0"/>
    <interval begin="0.00" end="30.00" id="201" nVehContrib="0" flow="0.00" occupancy="0.00" speed="-1.00" length="-1.00" nVehEntered="0"/>
    <interval begin="0.00" end="30.00" id="202" nVehContrib="0" flow="0.00" occupancy="0.00" speed="-1.00" length="-1.00" nVehEntered="0"/>
    <interval begin="0.00" end="30.00" id="203" nVehContrib="0" flow="0.00" occupancy="0.00" speed="-1.00" length="-1.00" nVehEntered="0"/>
    <interval begin="0.00" end="30.00" id="204" nVehContrib="0" flow="0.00" occupancy="0.00" speed="-1.00" length="-1.00" nVehEntered="0"/>
    <interval begin="0.00" end="30.00" id="205" nVehContrib="0" flow="0.00" occupancy="0.00" speed="-1.00" length="-1.00" nVehEntered="0"/>
    <interval begin="0.00" end="30.00" id="206" nVehContrib="0" flow="0.00" occupancy="0.00" speed="-1.00" length="-1.00" nVehEntered="0"/>
    <interval begin="0.00" end="30.00" id="207" nVehContrib="0" flow="0.00" occupancy="0.00" speed="-1.00" length="-1.00" nVehEntered="0"/>
    <interval begin="0.00" end="30.00" id="208" nVehContrib="0" flow="0.00" occupancy="0.00" speed="-1.00" length="-1.00" nVehEntered="0"/>
    <interval begin="0.00" end="30.00" id="209" nVehContrib="0" flow="0.00" occupancy="0.00" speed="-1.00" length="-1.00" nVehEntered="0"/>
    <interval begin="0.00" end="30.00" id="210" nVehContrib="0" flow="0.00" occupancy="0.00" speed="-1.00" length="-1.00" nVehEntered="0"/>
    <interval begin="0.00" end="30.00" id="211" nVehContrib="0" flow="0.00" occupancy="0.00" speed="-1.00" length="-1.00" nVehEntered="0"/>
    <interval begin="0.00" end="30.00" id="212" nVehContrib="0" flow="0.00" occupancy="0.00" speed="-1.00" length="-1.00" nVehEntered="0"/>
    <interval begin="0.00" end="30.00" id="213" nVehContrib="0" flow="0.00" occupancy="0.00" speed="-1.00" length="-1.00" nVehEntered="0"/>
    <interval begin="0.00" end="30.00" id="214" nVehContrib="0" flow="0.00" occupancy="0.00" speed="-1.00" length="-1.00" nVehEntered="0"/>
    <interval begin="0.00" end="30.00" id="215" nVehContrib="0" flow="0.00" occupancy="0.00" speed="-1.00" length="-1.00" nVehEntered="0"/>
    <interval begin="0.00" end="30.00" id="300" nVehContrib="0" flow="0.00" occupancy="0.00" speed="-1.00" length="-1.00" nVehEntered="0"/>
    <interval begin="0.00" end="30.00" id="301" nVehContrib="0" flow="0.00" occupancy="0.00" speed="-1.00" length="-1.00" nVehEntered="0"/>
    <interval begin="0.00" end="30.00" id="302" nVehContrib="0" flow="0.00" occupancy="0.00" speed="-1.00" length="-1.00" nVehEntered="0"/>
    <interval begin="0.00" end="30.00" id="303" nVehContrib="0" flow="0.00" occupancy="0.00" speed="-1.00" length="-1.00" nVehEntered="0"/>
    <interval begin="0.00" end="30.00" id="304" nVehContrib="0" flow="0.00" occupancy="0.00" speed="-1.00" length="-1.00" nVehEntered="0"/>
    <interval begin="0.00" end="30.00" id="305" nVehContrib="0" flow="0.00" occupancy="0.00" speed="-1.00" length="-1.00" nVehEntered="0"/>
    <interval begin="0.00" end="30.00" id="306" nVehContrib="0" flow="0.00" occupancy="0.00" speed="-1.00" length="-1.00" nVehEntered="0"/>
    <interval begin="0.00" end="30.00" id="307" nVehContrib="0" flow="0.00" occupancy="0.00" speed="-1.00" length="-1.00" nVehEntered="0"/>
    <interval begin="0.00" end="30.00" id="308" nVehContrib="0" flow="0.00" occupancy="0.00" speed="-1.00" length="-1.00" nVehEntered="0"/>
    <interval begin="0.00" end="30.00" id="309" nVehContrib="0" flow="0.00" occupancy="0.00" speed="-1.00" length="-1.00" nVehEntered="0"/>
    <interval begin="0.00" end="30.00" id="310" nVehContrib="0" flow="0.00" occupancy="0.00" speed="-1.00" length="-1.00" nVehEntered="0"/>
    <interval begin="0.00" end="30.00" id="311" nVehContrib="0" flow="0.00" occupancy="0.00" speed="-1.00" length="-1.00" nVehEntered="0"/>
    <interval begin="0.00" end="30.00" id="312" nVehContrib="0" flow="0.00" occupancy="0.00" speed="-1.00" length="-1.00" nVehEntered="0"/>
    <interval begin="0.00" end="30.00" id="313" nVehContrib="0" flow="0.00" occupancy="0.00" speed="-1.00" length="-1.00" nVehEntered="0"/>
    <interval begin="0.00" end="30.00" id="314" nVehContrib="0" flow="0.00" occupancy="0.00" speed="-1.00" length="-1.00" nVehEntered="0"/>
    <interval begin="0.00" end="30.00" id="315" nVehContrib="0" flow="0.00" occupancy="0.00" speed="-1.00" length="-1.00" nVehEntered="0"/>
    <interval begin="0.00" end="30.00" id="400" nVehContrib="0" flow="0.00" occupancy="40.50" speed="-1.00" length="-1.00" nVehEntered="1"/>
    <interval begin="0.00" end="30.00" id="401" nVehContrib="1" flow="120.00" occupancy="2.05" speed="8.12" length="5.00" nVehEntered="1"/>
    <interval begin="0.00" end="30.00" id="402" nVehContrib="1" flow="120.00" occupancy="2.07" speed="8.05" length="5.00" nVehEntered="1"/>
    <interval begin="0.00" end="30.00" id="403" nVehContrib="1" flow="120.00" occupancy="2.09" speed="7.99" length="5.00" nVehEntered="1"/>
    <interval begin="0.00" end="30.00" id="404" nVehContrib="1" flow="120.00" occupancy="2.22" speed="7.50" length="5.00" nVehEntered="1"/>
    <interval begin="0.00" end="30.00" id="405" nVehContrib="1" flow="120.00" occupancy="2.30" speed="7.23" length="5.00" nVehEntered="1"/>
    <interval begin="0.00" end="30.00" id="406" nVehContrib="1" flow="120.00" occupancy="2.40" speed="6.94" length="5.00" nVehEntered="1"/>
    <interval begin="0.00" end="30.00" id="407" nVehContrib="1" flow="120.00" occupancy="2.56" speed="6.50" length="5.00" nVehEntered="1"/>
    <interval begin="0.00" end="30.00" id="408" nVehContrib="1" flow="120.00" occupancy="2.74" speed="6.08" length="5.00" nVehEntered="1"/>
    <interval begin="0.00" end="30.00" id="409" nVehContrib="1" flow="120.00" occupancy="2.93" speed="5.68" length="5.00" nVehEntered="1"/>
    <interval begin="0.00" end="30.00" id="410" nVehContrib="1" flow="120.00" occupancy="3.19" speed="5.23" length="5.00" nVehEntered="1"/>
    <interval begin="0.00" end="30.00" id="411" nVehContrib="1" flow="120.00" occupancy="3.53" speed="4.73" length="5.00" nVehEntered="1"/>
    <interval begin="0.00" end="30.00" id="412" nVehContrib="1" flow="120.00" occupancy="3.99" speed="4.18" length="5.00" nVehEntered="1"/>
    <interval begin="0.00" end="30.00" id="413" nVehContrib="1" flow="120.00" occupancy="4.75" speed="3.51" length="5.00" nVehEntered="1"/>
    <interval begin="0.00" end="30.00" id="414" nVehContrib="1" flow="120.00" occupancy="6.33" speed="2.70" length="5.00" nVehEntered="2"/>
    <interval begin="0.00" end="30.00" id="415" nVehContrib="2" flow="240.00" occupancy="33.00" speed="1.01" length="5.00" nVehEntered="2"/>
    <interval begin="0.00" end="30.00" id="500" nVehContrib="0" flow="0.00" occupancy="0.00" speed="-1.00" length="-1.00" nVehEntered="0"/>
    <interval begin="0.00" end="30.00" id="501" nVehContrib="0" flow="0.00" occupancy="0.00" speed="-1.00" length="-1.00" nVehEntered="0"/>
    <interval begin="0.00" end="30.00" id="502" nVehContrib="0" flow="0.00" occupancy="0.00" speed="-1.00" length="-1.00" nVehEntered="0"/>
    <interval begin="0.00" end="30.00" id="503" nVehContrib="0" flow="0.00" occupancy="0.00" speed="-1.00" length="-1.00" nVehEntered="0"/>
    <interval begin="0.00" end="30.00" id="504" nVehContrib="0" flow="0.00" occupancy="0.00" speed="-1.00" length="-1.00" nVehEntered="0"/>
    <interval begin="0.00" end="30.00" id="505" nVehContrib="0" flow="0.00" occupancy="0.00" speed="-1.00" length="-1.00" nVehEntered="0"/>
    <interval begin="0.00" end="30.00" id="506" nVehContrib="0" flow="0.00" occupancy="0.00" speed="-1.00" length="-1.00" nVehEntered="0"/>
    <interval begin="0.00" end="30.00" id="507" nVehContrib="0" flow="0.00" occupancy="0.00" speed="-1.00" length="-1.00" nVehEntered="0"/>
    <interval begin="0.00" end="30.00" id="508" nVehContrib="0" flow="0.00" occupancy="0.00" speed="-1.00" length="-1.00" nVehEntered="0"/>
    <interval begin="0.00" end="30.00" id="509" nVehContrib="0" flow="0.00" occupancy="0.00" speed="-1.00" length="-1.00" nVehEntered="0"/>
    <interval begin="0.00" end="30.00" id="510" nVehContrib="0" flow="0.00" occupancy="0.00" speed="-1.00" length="-1.00" nVehEntered="0"/>
    <interval begin="0.00" end="30.00" id="511" nVehContrib="0" flow="0.00" occupancy="0.00" speed="-1.00" length="-1.00" nVehEntered="0"/>
    <interval begin="0.00" end="30.00" id="512" nVehContrib="0" flow="0.00" occupancy="0.00" speed="-1.00" length="-1.00" nVehEntered="0"/>
    <interval begin="0.00" end="30.00" id="513" nVehContrib="0" flow="0.00" occupancy="0.00" speed="-1.00" length="-1.00" nVehEntered="0"/>
    <interval begin="0.00" end="30.00" id="514" nVehContrib="0" flow="0.00" occupancy="0.00" speed="-1.00" length="-1.00" nVehEntered="0"/>
    <interval begin="0.00" end="30.00" id="515" nVehContrib="0" flow="0.00" occupancy="0.00" speed="-1.00" length="-1.00" nVehEntered="0"/>
    <interval begin="0.00" end="30.00" id="600" nVehContrib="0" flow="0.00" occupancy="0.00" speed="-1.00" length="-1.00" nVehEntered="0"/>
    <interval begin="0.00" end="30.00" id="601" nVehContrib="0" flow="0.00" occupancy="0.00" speed="-1.00" length="-1.00" nVehEntered="0"/>
    <interval begin="0.00" end="30.00" id="602" nVehContrib="0" flow="0.00" occupancy="0.00" speed="-1.00" length="-1.00" nVehEntered="0"/>
    <interval begin="0.00" end="30.00" id="603" nVehContrib="0" flow="0.00" occupancy="0.00" speed="-1.00" length="-1.00" nVehEntered="0"/>
    <interval begin="0.00" end="30.00" id="604" nVehContrib="0" flow="0.00" occupancy="0.00" speed="-1.00" length="-1.00" nVehEntered="0"/>
    <interval begin="0.00" end="30.00" id="605" nVehContrib="0" flow="0.00" occupancy="0.00" speed="-1.00" length="-1.00" nVehEntered="0"/>
    <interval begin="0.00" end="30.00" id="606" nVehContrib="0" flow="0.00" occupancy="0.00" speed="-1.00" length="-1.00" nVehEntered="0"/>
    <interval begin="0.00" end="30.00" id="607" nVehContrib="0" flow="0.00" occupancy="0.00" speed="-1.00" length="-1.00" nVehEntered="0"/>
    <interval begin="0.00" end="30.00" id="608" nVehContrib="0" flow="0.00" occupancy="0.00" speed="-1.00" length="-1.00" nVehEntered="0"/>
    <interval begin="0.00" end="30.00" id="609" nVehContrib="0" flow="0.00" occupancy="0.00" speed="-1.00" length="-1.00" nVehEntered="0"/>
    <interval begin="0.00" end="30.00" id="610" nVehContrib="0" flow="0.00" occupancy="0.00" speed="-1.00" length="-1.00" nVehEntered="0"/>
    <interval begin="0.00" end="30.00" id="611" nVehContrib="0" flow="0.00" occupancy="0.00" speed="-1.00" length="-1.00" nVehEntered="0"/>
    <interval begin="0.00" end="30.00" id="612" nVehContrib="0" flow="0.00" occupancy="0.00" speed="-1.00" length="-1.00" nVehEntered="0"/>
    <interval begin="0.00" end="30.00" id="613" nVehContrib="0" flow="0.00" occupancy="0.00" speed="-1.00" length="-1.00" nVehEntered="0"/>
    <interval begin="0.00" end="30.00" id="614" nVehContrib="0" flow="0.00" occupancy="0.00" speed="-1.00" length="-1.00" nVehEntered="0"/>
    <interval begin="0.00" end="30.00" id="615" nVehContrib="0" flow="0.00" occupancy="0.00" speed="-1.00" length="-1.00" nVehEntered="0"/>
    <interval begin="0.00" end="30.00" id="700" nVehContrib="0" flow="0.00" occupancy="0.00" speed="-1.00" length="-1.00" nVehEntered="0"/>
    <interval begin="0.00" end="30.00" id="701" nVehContrib="0" flow="0.00" occupancy="0.00" speed="-1.00" length="-1.00" nVehEntered="0"/>
    <interval begin="0.00" end="30.00" id="702" nVehContrib="0" flow="0.00" occupancy="0.00" speed="-1.00" length="-1.00" nVehEntered="0"/>
    <interval begin="0.00" end="30.00" id="703" nVehContrib="0" flow="0.00" occupancy="0.00" speed="-1.00" length="-1.00" nVehEntered="0"/>
    <interval begin="0.00" end="30.00" id="704" nVehContrib="0" flow="0.00" occupancy="0.00" speed="-1.00" length="-1.00" nVehEntered="0"/>
    <interval begin="0.00" end="30.00" id="705" nVehContrib="0" flow="0.00" occupancy="0.00" speed="-1.00" length="-1.00" nVehEntered="0"/>
    <interval begin="0.00" end="30.00" id="706" nVehContrib="0" flow="0.00" occupancy="0.00" speed="-1.00" length="-1.00" nVehEntered="0"/>
    <interval begin="0.00" end="30.00" id="707" nVehContrib="0" flow="0.00" occupancy="0.00" speed="-1.00" length="-1.00" nVehEntered="0"/>
    <interval begin="0.00" end="30.00" id="708" nVehContrib="0" flow="0.00" occupancy="0.00" speed="-1.00" length="-1.00" nVehEntered="0"/>
    <interval begin="0.00" end="30.00" id="709" nVehContrib="0" flow="0.00" occupancy="0.00" speed="-1.00" length="-1.00" nVehEntered="0"/>
    <interval begin="0.00" end="30.00" id="710" nVehContrib="0" flow="0.00" occupancy="0.00" speed="-1.00" length="-1.00" nVehEntered="0"/>
    <interval begin="0.00" end="30.00" id="711" nVehContrib="0" flow="0.00" occupancy="0.00" speed="-1.00" length="-1.00" nVehEntered="0"/>
    <interval begin="0.00" end="30.00" id="712" nVehContrib="0" flow="0.00" occupancy="0.00" speed="-1.00" length="-1.00" nVehEntered="0"/>
    <interval begin="0.00" end="30.00" id="713" nVehContrib="0" flow="0.00" occupancy="0.00" speed="-1.00" length="-1.00" nVehEntered="0"/>
    <interval begin="0.00" end="30.00" id="714" nVehContrib="0" flow="0.00" occupancy="0.00" speed="-1.00" length="-1.00" nVehEntered="0"/>
    <interval begin="0.00" end="30.00" id="715" nVehContrib="0" flow="0.00" occupancy="0.00" speed="-1.00" length="-1.00" nVehEntered="0"/>
    <interval begin="0.00" end="30.00" id="800" nVehContrib="1" flow="120.00" occupancy="1.89" speed="8.83" length="5.00" nVehEntered="1"/>
    <interval begin="0.00" end="30.00" id="801" nVehContrib="1" flow="120.00" occupancy="1.96" speed="8.50" length="5.00" nVehEntered="1"/>
    <interval begin="0.00" end="30.00" id="802" nVehContrib="1" flow="120.00" occupancy="2.04" speed="8.18" length="5.00" nVehEntered="1"/>
    <interval begin="0.00" end="30.00" id="803" nVehContrib="1" flow="120.00" occupancy="2.09" speed="7.99" length="5.00" nVehEntered="1"/>
    <interval begin="0.00" end="30.00" id="804" nVehContrib="1" flow="120.00" occupancy="2.22" speed="7.50" length="5.00" nVehEntered="1"/>
    <interval begin="0.00" end="30.00" id="805" nVehContrib="1" flow="120.00" occupancy="2.30" speed="7.23" length="5.00" nVehEntered="1"/>
    <interval begin="0.00" end="30.00" id="806" nVehContrib="1" flow="120.00" occupancy="2.40" speed="6.94" length="5.00" nVehEntered="1"/>
    <interval begin="0.00" end="30.00" id="807" nVehContrib="1" flow="120.00" occupancy="2.56" speed="6.50" length="5.00" nVehEntered="1"/>
    <interval begin="0.00" end="30.00" id="808" nVehContrib="1" flow="120.00" occupancy="2.74" speed="6.08" length="5.00" nVehEntered="1"/>
    <interval begin="0.00" end="30.00" id="809" nVehContrib="1" flow="120.00" occupancy="2.93" speed="5.68" length="5.00" nVehEntered="1"/>
    <interval begin="0.00" end="30.00" id="810" nVehContrib="1" flow="120.00" occupancy="3.19" speed="5.23" length="5.00" nVehEntered="1"/>
    <interval begin="0.00" end="30.00" id="811" nVehContrib="1" flow="120.00" occupancy="3.53" speed="4.73" length="5.00" nVehEntered="1"/>
    <interval begin="0.00" end="30.00" id="812" nVehContrib="1" flow="120.00" occupancy="3.99" speed="4.18" length="5.00" nVehEntered="1"/>
    <interval begin="0.00" end="30.00" id="813" nVehContrib="1" flow="120.00" occupancy="5.42" speed="3.51" length="5.00" nVehEntered="2"/>
    <interval begin="0.00" end="30.00" id="814" nVehContrib="2" flow="240.00" occupancy="12.33" speed="2.70" length="5.00" nVehEntered="2"/>
    <interval begin="0.00" end="30.00" id="815" nVehContrib="2" flow="240.00" occupancy="33.00" speed="1.01" length="5.00" nVehEntered="2"/>
    <interval begin="0.00" end="30.00" id="900" nVehContrib="0" flow="0.00" occupancy="0.00" speed="-1.00" length="-1.00" nVehEntered="0"/>
    <interval begin="0.00" end="30.00" id="901" nVehContrib="0" flow="0.00" occupancy="0.00" speed="-1.00" length="-1.00" nVehEntered="0"/>
    <interval begin="0.00" end="30.00" id="902" nVehContrib="0" flow="0.00" occupancy="0.00" speed="-1.00" length="-1.00" nVehEntered="0"/>
    <interval begin="0.00" end="30.00" id="903" nVehContrib="0" flow="0.00" occupancy="0.00" speed="-1.00" length="-1.00" nVehEntered="0"/>
    <interval begin="0.00" end="30.00" id="904" nVehContrib="0" flow="0.00" occupancy="0.00" speed="-1.00" length="-1.00" nVehEntered="0"/>
    <interval begin="0.00" end="30.00" id="905" nVehContrib="0" flow="0.00" occupancy="0.00" speed="-1.00" length="-1.00" nVehEntered="0"/>
    <interval begin="0.00" end="30.00" id="906" nVehContrib="0" flow="0.00" occupancy="0.00" speed="-1.00" length="-1.00" nVehEntered="0"/>
    <interval begin="0.00" end="30.00" id="907" nVehContrib="0" flow="0.00" occupancy="0.00" speed="-1.00" length="-1.00" nVehEntered="0"/>
    <interval begin="0.00" end="30.00" id="908" nVehContrib="0" flow="0.00" occupancy="0.00" speed="-1.00" length="-1.00" nVehEntered="0"/>
    <interval begin="0.00" end="30.00" id="909" nVehContrib="0" flow="0.00" occupancy="0.00" speed="-1.00" length="-1.00" nVehEntered="0"/>
    <interval begin="0.00" end="30.00" id="910" nVehContrib="0" flow="0.00" occupancy="0.00" speed="-1.00" length="-1.00" nVehEntered="0"/>
    <interval begin="0.00" end="30.00" id="911" nVehContrib="0" flow="0.00" occupancy="0.00" speed="-1.00" length="-1.00" nVehEntered="0"/>
    <interval begin="0.00" end="30.00" id="912" nVehContrib="0" flow="0.00" occupancy="0.00" speed="-1.00" length="-1.00" nVehEntered="0"/>
    <interval begin="0.00" end="30.00" id="913" nVehContrib="0" flow="0.00" occupancy="0.00" speed="-1.00" length="-1.00" nVehEntered="0"/>
    <interval begin="0.00" end="30.00" id="914" nVehContrib="0" flow="0.00" occupancy="0.00" speed="-1.00" length="-1.00" nVehEntered="0"/>
    <interval begin="0.00" end="30.00" id="915" nVehContrib="0" flow="0.00" occupancy="0.00" speed="-1.00" length="-1.00" nVehEntered="0"/>
    <interval begin="0.00" end="30.00" id="1000" nVehContrib="0" flow="0.00" occupancy="0.00" speed="-1.00" length="-1.00" nVehEntered="0"/>
    <interval begin="0.00" end="30.00" id="1001" nVehContrib="0" flow="0.00" occupancy="0.00" speed="-1.00" length="-1.00" nVehEntered="0"/>
    <interval begin="0.00" end="30.00" id="1002" nVehContrib="0" flow="0.00" occupancy="0.00" speed="-1.00" length="-1.00" nVehEntered="0"/>
    <interval begin="0.00" end="30.00" id="1003" nVehContrib="0" flow="0.00" occupancy="0.00" speed="-1.00" length="-1.00" nVehEntered="0"/>
    <interval begin="0.00" end="30.00" id="1004" nVehContrib="0" flow="0.00" occupancy="0.00" speed="-1.00" length="-1.00" nVehEntered="0"/>
    <interval begin="0.00" end="30.00" id="1005" nVehContrib="0" flow="0.00" occupancy="0.00" speed="-1.00" length="-1.00" nVehEntered="0"/>
    <interval begin="0.00" end="30.00" id="1006" nVehContrib="0" flow="0.00" occupancy="0.00" speed="-1.00" length="-1.00" nVehEntered="0"/>
    <interval begin="0.00" end="30.00" id="1007" nVehContrib="0" flow="0.00" occupancy="0.00" speed="-1.00" length="-1.00" nVehEntered="0"/>
    <interval begin="0.00" end="30.00" id="1008" nVehContrib="0" flow="0.00" occupancy="0.00" speed="-1.00" length="-1.00" nVehEntered="0"/>
    <interval begin="0.00" end="30.00" id="1009" nVehContrib="0" flow="0.00" occupancy="0.00" speed="-1.00" length="-1.00" nVehEntered="0"/>
    <interval begin="0.00" end="30.00" id="1010" nVehContrib="0" flow="0.00" occupancy="0.00" speed="-1.00" length="-1.00" nVehEntered="0"/>
    <interval begin="0.00" end="30.00" id="1011" nVehContrib="0" flow="0.00" occupancy="0.00" speed="-1.00" length="-1.00" nVehEntered="0"/>
    <interval begin="0.00" end="30.00" id="1012" nVehContrib="0" flow="0.00" occupancy="0.00" speed="-1.00" length="-1.00" nVehEntered="0"/>
    <interval begin="0.00" end="30.00" id="1013" nVehContrib="0" flow="0.00" occupancy="0.00" speed="-1.00" length="-1.00" nVehEntered="0"/>
    <interval begin="0.00" end="30.00" id="1014" nVehContrib="0" flow="0.00" occupancy="0.00" speed="-1.00" length="-1.00" nVehEntered="0"/>
    <interval begin="0.00" end="30.00" id="1015" nVehContrib="0" flow="0.00" occupancy="0.00" speed="-1.00" length="-1.00" nVehEntered="0"/>
    <interval begin="0.00" end="30.00" id="1100" nVehContrib="0" flow="0.00" occupancy="0.00" speed="-1.00" length="-1.00" nVehEntered="0"/>
    <interval begin="0.00" end="30.00" id="1101" nVehContrib="0" flow="0.00" occupancy="0.00" speed="-1.00" length="-1.00" nVehEntered="0"/>
    <interval begin="0.00" end="30.00" id="1102" nVehContrib="0" flow="0.00" occupancy="0.00" speed="-1.00" length="-1.00" nVehEntered="0"/>
    <interval begin="0.00" end="30.00" id="1103" nVehContrib="0" flow="0.00" occupancy="0.00" speed="-1.00" length="-1.00" nVehEntered="0"/>
    <interval begin="0.00" end="30.00" id="1104" nVehContrib="0" flow="0.00" occupancy="0.00" speed="-1.00" length="-1.00" nVehEntered="0"/>
    <interval begin="0.00" end="30.00" id="1105" nVehContrib="0" flow="0.00" occupancy="0.00" speed="-1.00" length="-1.00" nVehEntered="0"/>
    <interval begin="0.00" end="30.00" id="1106" nVehContrib="0" flow="0.00" occupancy="0.00" speed="-1.00" length="-1.00" nVehEntered="0"/>
    <interval begin="0.00" end="30.00" id="1107" nVehContrib="0" flow="0.00" occupancy="0.00" speed="-1.00" length="-1.00" nVehEntered="0"/>
    <interval begin="0.00" end="30.00" id="1108" nVehContrib="0" flow="0.00" occupancy="0.00" speed="-1.00" length="-1.00" nVehEntered="0"/>
    <interval begin="0.00" end="30.00" id="1109" nVehContrib="0" flow="0.00" occupancy="0.00" speed="-1.00" length="-1.00" nVehEntered="0"/>
    <interval begin="0.00" end="30.00" id="1110" nVehContrib="0" flow="0.00" occupancy="0.00" speed="-1.00" length="-1.00" nVehEntered="0"/>
    <interval begin="0.00" end="30.00" id="1111" nVehContrib="0" flow="0.00" occupancy="0.00" speed="-1.00" length="-1.00" nVehEntered="0"/>
    <interval begin="0.00" end="30.00" id="1112" nVehContrib="0" flow="0.00" occupancy="0.00" speed="-1.00" length="-1.00" nVehEntered="0"/>
    <interval begin="0.00" end="30.00" id="1113" nVehContrib="0" flow="0.00" occupancy="0.00" speed="-1.00" length="-1.00" nVehEntered="0"/>
    <interval begin="0.00" end="30.00" id="1114" nVehContrib="0" flow="0.00" occupancy="0.00" speed="-1.00" length="-1.00" nVehEntered="0"/>
    <interval begin="0.00" end="30.00" id="1115" nVehContrib="0" flow="0.00" occupancy="0.00" speed="-1.00" length="-1.00" nVehEntered="0"/>
    <interval begin="0.00" end="30.00" id="1200" nVehContrib="2" flow="240.00" occupancy="3.77" speed="8.83" length="5.00" nVehEntered="2"/>
    <interval begin="0.00" end="30.00" id="1201" nVehContrib="2" flow="240.00" occupancy="3.92" speed="8.50" length="5.00" nVehEntered="2"/>
    <interval begin="0.00" end="30.00" id="1202" nVehContrib="2" flow="240.00" occupancy="4.07" speed="8.18" length="5.00" nVehEntered="2"/>
    <interval begin="0.00" end="30.00" id="1203" nVehContrib="2" flow="240.00" occupancy="4.17" speed="7.99" length="5.00" nVehEntered="2"/>
    <interval begin="0.00" end="30.00" id="1204" nVehContrib="2" flow="240.00" occupancy="4.44" speed="7.50" length="5.00" nVehEntered="2"/>
    <interval begin="0.00" end="30.00" id="1205" nVehContrib="2" flow="240.00" occupancy="5.85" speed="7.23" length="5.00" nVehEntered="3"/>
    <interval begin="0.00" end="30.00" id="1206" nVehContrib="3" flow="360.00" occupancy="7.21" speed="6.94" length="5.00" nVehEntered="3"/>
    <interval begin="0.00" end="30.00" id="1207" nVehContrib="3" flow="360.00" occupancy="7.69" speed="6.50" length="5.00" nVehEntered="3"/>
    <interval begin="0.00" end="30.00" id="1208" nVehContrib="3" flow="360.00" occupancy="8.22" speed="6.08" length="5.00" nVehEntered="3"/>
    <interval begin="0.00" end="30.00" id="1209" nVehContrib="3" flow="360.00" occupancy="8.80" speed="5.68" length="5.00" nVehEntered="3"/>
    <interval begin="0.00" end="30.00" id="1210" nVehContrib="3" flow="360.00" occupancy="9.56" speed="5.23" length="5.00" nVehEntered="3"/>
    <interval begin="0.00" end="30.00" id="1211" nVehContrib="3" flow="360.00" occupancy="10.58" speed="4.73" length="5.00" nVehEntered="3"/>
    <interval begin="0.00" end="30.00" id="1212" nVehContrib="3" flow="360.00" occupancy="14.56" speed="4.18" length="5.00" nVehEntered="4"/>
    <interval begin="0.00" end="30.00" id="1213" nVehContrib="4" flow="480.00" occupancy="19.00" speed="3.51" length="5.00" nVehEntered="4"/>
    <interval begin="0.00" end="30.00" id="1214" nVehContrib="4" flow="480.00" occupancy="24.67" speed="2.70" length="5.00" nVehEntered="4"/>