<?xml version="1.0" encoding="UTF-8"?>

<!-- generated on Wednesday 20 September 2017 08:12:01 PM IST by SUMO gui Version 0.30.0
<?xml version="1.0" encoding="UTF-8"?>

<configuration xmlns:xsi="http://www.w3.org/2001/XMLSchema-instance" xsi:noNamespaceSchemaLocation="http://sumo.dlr.de/xsd/sumoConfiguration.xsd">

    <input>
        <net-file value="hello.net.xml"/>
        <route-files value="hello.rou.xml"/>
        <additional-files value="hello.det.xml"/>
    </input>

    <output>
        <tripinfo-output value="tripinfo.xml"/>
    </output>

    <time>
        <begin value="0"/>
        <end value="10000"/>
    </time>

    <traci_server>
        <remote-port value="42388"/>
    </traci_server>

    <gui_only>
        <gui-settings-file value="hello.settings.xml"/>
    </gui_only>

</configuration>
-->

<detector xmlns:xsi="http://www.w3.org/2001/XMLSchema-instance" xsi:noNamespaceSchemaLocation="http://sumo.dlr.de/xsd/det_e1_file.xsd">
    <interval begin="0.00" end="30.00" id="0" nVehContrib="0" flow="0.00" occupancy="37.17" speed="-1.00" length="-1.00" nVehEntered="1"/>
    <interval begin="0.00" end="30.00" id="1" nVehContrib="1" flow="120.00" occupancy="2.05" speed="8.12" length="5.00" nVehEntered="1"/>
    <interval begin="0.00" end="30.00" id="2" nVehContrib="1" flow="120.00" occupancy="2.07" speed="8.05" length="5.00" nVehEntered="2"/>
    <interval begin="0.00" end="30.00" id="3" nVehContrib="2" flow="240.00" occupancy="4.17" speed="7.99" length="5.00" nVehEntered="2"/>
    <interval begin="0.00" end="30.00" id="4" nVehContrib="2" flow="240.00" occupancy="4.44" speed="7.50" length="5.00" nVehEntered="2"/>
    <interval begin="0.00" end="30.00" id="5" nVehContrib="2" flow="240.00" occupancy="4.61" speed="7.23" length="5.00" nVehEntered="2"/>
    <interval begin="0.00" end="30.00" id="6" nVehContrib="2" flow="240.00" occupancy="4.81" speed="6.94" length="5.00" nVehEntered="2"/>
    <interval begin="0.00" end="30.00" id="7" nVehContrib="2" flow="240.00" occupancy="5.13" speed="6.50" length="5.00" nVehEntered="2"/>
    <interval begin="0.00" end="30.00" id="100" nVehContrib="0" flow="0.00" occupancy="3.84" speed="-1.00" length="-1.00" nVehEntered="1"/>
    <interval begin="0.00" end="30.00" id="101" nVehContrib="1" flow="120.00" occupancy="2.05" speed="8.12" length="5.00" nVehEntered="1"/>
    <interval begin="0.00" end="30.00" id="102" nVehContrib="1" flow="120.00" occupancy="4.11" speed="4.05" length="5.00" nVehEntered="1"/>
    <interval begin="0.00" end="30.00" id="103" nVehContrib="0" flow="0.00" occupancy="0.00" speed="-1.00" length="-1.00" nVehEntered="0"/>
    <interval begin="0.00" end="30.00" id="104" nVehContrib="0" flow="0.00" occupancy="0.00" speed="-1.00" length="-1.00" nVehEntered="0"/>
    <interval begin="0.00" end="30.00" id="105" nVehContrib="0" flow="0.00" occupancy="0.00" speed="-1.00" length="-1.00" nVehEntered="0"/>
    <interval begin="0.00" end="30.00" id="106" nVehContrib="0" flow="0.00" occupancy="0.00" speed="-1.00" length="-1.00" nVehEntered="0"/>
    <interval begin="0.00" end="30.00" id="107" nVehContrib="0" flow="0.00" occupancy="0.00" speed="-1.00" length="-1.00" nVehEntered="0"/>
    <interval begin="0.00" end="30.00" id="200" nVehContrib="0" flow="0.00" occupancy="0.00" speed="-1.00" length="-1.00" nVehEntered="0"/>
    <interval begin="0.00" end="30.00" id="201" nVehContrib="0" flow="0.00" occupancy="0.00" speed="-1.00" length="-1.00" nVehEntered="0"/>
    <interval begin="0.00" end="30.00" id="202" nVehContrib="0" flow="0.00" occupancy="0.00" speed="-1.00" length="-1.00" nVehEntered="0"/>
    <interval begin="0.00" end="30.00" id="203" nVehContrib="0" flow="0.00" occupancy="0.00" speed="-1.00" length="-1.00" nVehEntered="0"/>
    <interval begin="0.00" end="30.00" id="204" nVehContrib="0" flow="0.00" occupancy="0.00" speed="-1.00" length="-1.00" nVehEntered="0"/>
    <interval begin="0.00" end="30.00" id="205" nVehContrib="0" flow="0.00" occupancy="0.00" speed="-1.00" length="-1.00" nVehEntered="0"/>
    <interval begin="0.00" end="30.00" id="206" nVehContrib="0" flow="0.00" occupancy="0.00" speed="-1.00" length="-1.00" nVehEntered="0"/>
    <interval begin="0.00" end="30.00" id="207" nVehContrib="0" flow="0.00" occupancy="0.00" speed="-1.00" length="-1.00" nVehEntered="0"/>
    <interval begin="0.00" end="30.00" id="300" nVehContrib="0" flow="0.00" occupancy="0.00" speed="-1.00" length="-1.00" nVehEntered="0"/>
    <interval begin="0.00" end="30.00" id="301" nVehContrib="0" flow="0.00" occupancy="0.00" speed="-1.00" length="-1.00" nVehEntered="0"/>
    <interval begin="0.00" end="30.00" id="302" nVehContrib="0" flow="0.00" occupancy="0.00" speed="-1.00" length="-1.00" nVehEntered="0"/>
    <interval begin="0.00" end="30.00" id="303" nVehContrib="0" flow="0.00" occupancy="0.00" speed="-1.00" length="-1.00" nVehEntered="0"/>
    <interval begin="0.00" end="30.00" id="304" nVehContrib="0" flow="0.00" occupancy="0.00" speed="-1.00" length="-1.00" nVehEntered="0"/>
    <interval begin="0.00" end="30.00" id="305" nVehContrib="0" flow="0.00" occupancy="0.00" speed="-1.00" length="-1.00" nVehEntered="0"/>
    <interval begin="0.00" end="30.00" id="306" nVehContrib="0" flow="0.00" occupancy="0.00" speed="-1.00" length="-1.00" nVehEntered="0"/>
    <interval begin="0.00" end="30.00" id="307" nVehContrib="0" flow="0.00" occupancy="0.00" speed="-1.00" length="-1.00" nVehEntered="0"/>
    <interval begin="0.00" end="30.00" id="400" nVehContrib="0" flow="0.00" occupancy="40.50" speed="-1.00" length="-1.00" nVehEntered="1"/>
    <interval begin="0.00" end="30.00" id="401" nVehContrib="1" flow="120.00" occupancy="2.05" speed="8.12" length="5.00" nVehEntered="1"/>
    <interval begin="0.00" end="30.00" id="402" nVehContrib="1" flow="120.00" occupancy="2.07" speed="8.05" length="5.00" nVehEntered="1"/>
    <interval begin="0.00" end="30.00" id="403" nVehContrib="1" flow="120.00" occupancy="2.09" speed="7.99" length="5.00" nVehEntered="1"/>
    <interval begin="0.00" end="30.00" id="404" nVehContrib="1" flow="120.00" occupancy="2.22" speed="7.50" length="5.00" nVehEntered="1"/>
    <interval begin="0.00" end="30.00" id="405" nVehContrib="1" flow="120.00" occupancy="2.30" speed="7.23" length="5.00" nVehEntered="1"/>
    <interval begin="0.00" end="30.00" id="406" nVehContrib="1" flow="120.00" occupancy="2.40" speed="6.94" length="5.00" nVehEntered="1"/>
    <interval begin="0.00" end="30.00" id="407" nVehContrib="1" flow="120.00" occupancy="2.56" speed="6.50" length="5.00" nVehEntered="1"/>
    <interval begin="0.00" end="30.00" id="500" nVehContrib="0" flow="0.00" occupancy="0.00" speed="-1.00" length="-1.00" nVehEntered="0"/>
    <interval begin="0.00" end="30.00" id="501" nVehContrib="0" flow="0.00" occupancy="0.00" speed="-1.00" length="-1.00" nVehEntered="0"/>
    <interval begin="0.00" end="30.00" id="502" nVehContrib="0" flow="0.00" occupancy="0.00" speed="-1.00" length="-1.00" nVehEntered="0"/>
    <interval begin="0.00" end="30.00" id="503" nVehContrib="0" flow="0.00" occupancy="0.00" speed="-1.00" length="-1.00" nVehEntered="0"/>
    <interval begin="0.00" end="30.00" id="504" nVehContrib="0" flow="0.00" occupancy="0.00" speed="-1.00" length="-1.00" nVehEntered="0"/>
    <interval begin="0.00" end="30.00" id="505" nVehContrib="0" flow="0.00" occupancy="0.00" speed="-1.00" length="-1.00" nVehEntered="0"/>
    <interval begin="0.00" end="30.00" id="506" nVehContrib="0" flow="0.00" occupancy="0.00" speed="-1.00" length="-1.00" nVehEntered="0"/>
    <interval begin="0.00" end="30.00" id="507" nVehContrib="0" flow="0.00" occupancy="0.00" speed="-1.00" length="-1.00" nVehEntered="0"/>
    <interval begin="0.00" end="30.00" id="600" nVehContrib="0" flow="0.00" occupancy="0.00" speed="-1.00" length="-1.00" nVehEntered="0"/>
    <interval begin="0.00" end="30.00" id="601" nVehContrib="0" flow="0.00" occupancy="0.00" speed="-1.00" length="-1.00" nVehEntered="0"/>
    <interval begin="0.00" end="30.00" id="602" nVehContrib="0" flow="0.00" occupancy="0.00" speed="-1.00" length="-1.00" nVehEntered="0"/>
    <interval begin="0.00" end="30.00" id="603" nVehContrib="0" flow="0.00" occupancy="0.00" speed="-1.00" length="-1.00" nVehEntered="0"/>
    <interval begin="0.00" end="30.00" id="604" nVehContrib="0" flow="0.00" occupancy="0.00" speed="-1.00" length="-1.00" nVehEntered="0"/>
    <interval begin="0.00" end="30.00" id="605" nVehContrib="0" flow="0.00" occupancy="0.00" speed="-1.00" length="-1.00" nVehEntered="0"/>
    <interval begin="0.00" end="30.00" id="606" nVehContrib="0" flow="0.00" occupancy="0.00" speed="-1.00" length="-1.00" nVehEntered="0"/>
    <interval begin="0.00" end="30.00" id="607" nVehContrib="0" flow="0.00" occupancy="0.00" speed="-1.00" length="-1.00" nVehEntered="0"/>
    <interval begin="0.00" end="30.00" id="700" nVehContrib="0" flow="0.00" occupancy="0.00" speed="-1.00" length="-1.00" nVehEntered="0"/>
    <interval begin="0.00" end="30.00" id="701" nVehContrib="0" flow="0.00" occupancy="0.00" speed="-1.00" length="-1.00" nVehEntered="0"/>
    <interval begin="0.00" end="30.00" id="702" nVehContrib="0" flow="0.00" occupancy="0.00" speed="-1.00" length="-1.00" nVehEntered="0"/>
    <interval begin="0.00" end="30.00" id="703" nVehContrib="0" flow="0.00" occupancy="0.00" speed="-1.00" length="-1.00" nVehEntered="0"/>
    <interval begin="0.00" end="30.00" id="704" nVehContrib="0" flow="0.00" occupancy="0.00" speed="-1.00" length="-1.00" nVehEntered="0"/>
    <interval begin="0.00" end="30.00" id="705" nVehContrib="0" flow="0.00" occupancy="0.00" speed="-1.00" length="-1.00" nVehEntered="0"/>
    <interval begin="0.00" end="30.00" id="706" nVehContrib="0" flow="0.00" occupancy="0.00" speed="-1.00" length="-1.00" nVehEntered="0"/>
    <interval begin="0.00" end="30.00" id="707" nVehContrib="0" flow="0.00" occupancy="0.00" speed="-1.00" length="-1.00" nVehEntered="0"/>
    <interval begin="0.00" end="30.00" id="800" nVehContrib="1" flow="120.00" occupancy="1.89" speed="8.83" length="5.00" nVehEntered="1"/>
    <interval begin="0.00" end="30.00" id="801" nVehContrib="1" flow="120.00" occupancy="1.96" speed="8.50" length="5.00" nVehEntered="1"/>
    <interval begin="0.00" end="30.00" id="802" nVehContrib="1" flow="120.00" occupancy="2.04" speed="8.18" length="5.00" nVehEntered="1"/>
    <interval begin="0.00" end="30.00" id="803" nVehContrib="1" flow="120.00" occupancy="2.09" speed="7.99" length="5.00" nVehEntered="1"/>
    <interval begin="0.00" end="30.00" id="804" nVehContrib="1" flow="120.00" occupancy="2.22" speed="7.50" length="5.00" nVehEntered="1"/>
    <interval begin="0.00" end="30.00" id="805" nVehContrib="1" flow="120.00" occupancy="2.30" speed="7.23" length="5.00" nVehEntered="1"/>
    <interval begin="0.00" end="30.00" id="806" nVehContrib="1" flow="120.00" occupancy="2.40" speed="6.94" length="5.00" nVehEntered="1"/>
    <interval begin="0.00" end="30.00" id="807" nVehContrib="1" flow="120.00" occupancy="2.56" speed="6.50" length="5.00" nVehEntered="1"/>
    <interval begin="0.00" end="30.00" id="900" nVehContrib="0" flow="0.00" occupancy="0.00" speed="-1.00" length="-1.00" nVehEntered="0"/>
    <interval begin="0.00" end="30.00" id="901" nVehContrib="0" flow="0.00" occupancy="0.00" speed="-1.00" length="-1.00" nVehEntered="0"/>
    <interval begin="0.00" end="30.00" id="902" nVehContrib="0" flow="0.00" occupancy="0.00" speed="-1.00" length="-1.00" nVehEntered="0"/>
    <interval begin="0.00" end="30.00" id="903" nVehContrib="0" flow="0.00" occupancy="0.00" speed="-1.00" length="-1.00" nVehEntered="0"/>
    <interval begin="0.00" end="30.00" id="904" nVehContrib="0" flow="0.00" occupancy="0.00" speed="-1.00" length="-1.00" nVehEntered="0"/>
    <interval begin="0.00" end="30.00" id="905" nVehContrib="0" flow="0.00" occupancy="0.00" speed="-1.00" length="-1.00" nVehEntered="0"/>
    <interval begin="0.00" end="30.00" id="906" nVehContrib="0" flow="0.00" occupancy="0.00" speed="-1.00" length="-1.00" nVehEntered="0"/>
    <interval begin="0.00" end="30.00" id="907" nVehContrib="0" flow="0.00" occupancy="0.00" speed="-1.00" length="-1.00" nVehEntered="0"/>
    <interval begin="0.00" end="30.00" id="1000" nVehContrib="0" flow="0.00" occupancy="0.00" speed="-1.00" length="-1.00" nVehEntered="0"/>
    <interval begin="0.00" end="30.00" id="1001" nVehContrib="0" flow="0.00" occupancy="0.00" speed="-1.00" length="-1.00" nVehEntered="0"/>
    <interval begin="0.00" end="30.00" id="1002" nVehContrib="0" flow="0.00" occupancy="0.00" speed="-1.00" length="-1.00" nVehEntered="0"/>
    <interval begin="0.00" end="30.00" id="1003" nVehContrib="0" flow="0.00" occupancy="0.00" speed="-1.00" length="-1.00" nVehEntered="0"/>
    <interval begin="0.00" end="30.00" id="1004" nVehContrib="0" flow="0.00" occupancy="0.00" speed="-1.00" length="-1.00" nVehEntered="0"/>
    <interval begin="0.00" end="30.00" id="1005" nVehContrib="0" flow="0.00" occupancy="0.00" speed="-1.00" length="-1.00" nVehEntered="0"/>
    <interval begin="0.00" end="30.00" id="1006" nVehContrib="0" flow="0.00" occupancy="0.00" speed="-1.00" length="-1.00" nVehEntered="0"/>
    <interval begin="0.00" end="30.00" id="1007" nVehContrib="0" flow="0.00" occupancy="0.00" speed="-1.00" length="-1.00" nVehEntered="0"/>
    <interval begin="0.00" end="30.00" id="1100" nVehContrib="0" flow="0.00" occupancy="0.00" speed="-1.00" length="-1.00" nVehEntered="0"/>
    <interval begin="0.00" end="30.00" id="1101" nVehContrib="0" flow="0.00" occupancy="0.00" speed="-1.00" length="-1.00" nVehEntered="0"/>
    <interval begin="0.00" end="30.00" id="1102" nVehContrib="0" flow="0.00" occupancy="0.00" speed="-1.00" length="-1.00" nVehEntered="0"/>
    <interval begin="0.00" end="30.00" id="1103" nVehContrib="0" flow="0.00" occupancy="0.00" speed="-1.00" length="-1.00" nVehEntered="0"/>
    <interval begin="0.00" end="30.00" id="1104" nVehContrib="0" flow="0.00" occupancy="0.00" speed="-1.00" length="-1.00" nVehEntered="0"/>
    <interval begin="0.00" end="30.00" id="1105" nVehContrib="0" flow="0.00" occupancy="0.00" speed="-1.00" length="-1.00" nVehEntered="0"/>
    <interval begin="0.00" end="30.00" id="1106" nVehContrib="0" flow="0.00" occupancy="0.00" speed="-1.00" length="-1.00" nVehEntered="0"/>
    <interval begin="0.00" end="30.00" id="1107" nVehContrib="0" flow="0.00" occupancy="0.00" speed="-1.00" length="-1.00" nVehEntered="0"/>
    <interval begin="0.00" end="30.00" id="1200" nVehContrib="2" flow="240.00" occupancy="3.77" speed="8.83" length="5.00" nVehEntered="2"/>
    <interval begin="0.00" end="30.00" id="1201" nVehContrib="2" flow="240.00" occupancy="3.92" speed="8.50" length="5.00" nVehEntered="2"/>
    <interval begin="0.00" end="30.00" id="1202" nVehContrib="2" flow="240.00" occupancy="4.07" speed="8.18" length="5.00" nVehEntered="2"/>
    <interval begin="0.00" end="30.00" id="1203" nVehContrib="2" flow="240.00" occupancy="4.17" speed="7.99" length="5.00" nVehEntered="2"/>
    <interval begin="0.00" end="30.00" id="1204" nVehContrib="2" flow="240.00" occupancy="4.44" speed="7.50" length="5.00" nVehEntered="2"/>
    <interval begin="0.00" end="30.00" id="1205" nVehContrib="2" flow="240.00" occupancy="5.85" speed="7.23" length="5.00" nVehEntered="3"/>
    <interval begin="0.00" end="30.00" id="1206" nVehContrib="3" flow="360.00" occupancy="7.21" speed="6.94" length="5.00" nVehEntered="3"/>
    <interval begin="0.00" end="30.00" id="1207" nVehContrib="3" flow="360.00" occupancy="7.69" speed="6.50" length="5.00" nVehEntered="3"/>
    <interval begin="0.00" end="30.00" id="1300" nVehContrib="0" flow="0.00" occupancy="0.00" speed="-1.00" length="-1.00" nVehEntered="0"/>
    <interval begin="0.00" end="30.00" id="1301" nVehContrib="0" flow="0.00" occupancy="0.00" speed="-1.00" length="-1.00" nVehEntered="0"/>
    <interval begin="0.00" end="30.00" id="1302" nVehContrib="0" flow="0.00" occupancy="0.00" speed="-1.00" length="-1.00" nVehEntered="0"/>
    <interval begin="0.00" end="30.00" id="1303" nVehContrib="0" flow="0.00" occupancy="0.00" speed="-1.00" length="-1.00" nVehEntered="0"/>
    <interval begin="0.00" end="30.00" id="1304" nVehContrib="0" flow="0.00" occupancy="0.00" speed="-1.00" length="-1.00" nVehEntered="0"/>
    <interval begin="0.00" end="30.00" id="1305" nVehContrib="0" flow="0.00" occupancy="0.00" speed="-1.00" length="-1.00" nVehEntered="0"/>
    <interval begin="0.00" end="30.00" id="1306" nVehContrib="0" flow="0.00" occupancy="0.00" speed="-1.00" length="-1.00" nVehEntered="0"/>
    <interval begin="0.00" end="30.00" id="1307" nVehContrib="0" flow="0.00" occupancy="0.00" speed="-1.00" length="-1.00" nVehEntered="0"/>
    <interval begin="0.00" end="30.00" id="1400" nVehContrib="0" flow="0.00" occupancy="0.00" speed="-1.00" length="-1.00" nVehEntered="0"/>
    <interval begin="0.00" end="30.00" id="1401" nVehContrib="0" flow="0.00" occupancy="0.00" speed="-1.00" length="-1.00" nVehEntered="0"/>
    <interval begin="0.00" end="30.00" id="1402" nVehContrib="0" flow="0.00" occupancy="0.00" speed="-1.00" length="-1.00" nVehEntered="0"/>
    <interval begin="0.00" end="30.00" id="1403" nVehContrib="0" flow="0.00" occupancy="0.00" speed="-1.00" length="-1.00" nVehEntered="0"/>
    <interval begin="0.00" end="30.00" id="1404" nVehContrib="0" flow="0.00" occupancy="0.00" speed="-1.00" length="-1.00" nVehEntered="0"/>
    <interval begin="0.00" end="30.00" id="1405" nVehContrib="0" flow="0.00" occupancy="0.00" speed="-1.00" length="-1.00" nVehEntered="0"/>
    <interval begin="0.00" end="30.00" id="1406" nVehContrib="0" flow="0.00" occupancy="0.00" speed="-1.00" length="-1.00" nVehEntered="0"/>
    <interval begin="0.00" end="30.00" id="1407" nVehContrib="0" flow="0.00" occupancy="0.00" speed="-1.00" length="-1.00" nVehEntered="0"/>
    <interval begin="0.00" end="30.00" id="1500" nVehContrib="0" flow="0.00" occupancy="0.00" speed="-1.00" length="-1.00" nVehEntered="0"/>
    <interval begin="0.00" end="30.00" id="1501" nVehContrib="0" flow="0.00" occupancy="0.00" speed="-1.00" length="-1.00" nVehEntered="0"/>
    <interval begin="0.00" end="30.00" id="1502" nVehContrib="0" flow="0.00" occupancy="0.00" speed="-1.00" length="-1.00" nVehEntered="0"/>
    <interval begin="0.00" end="30.00" id="1503" nVehContrib="0" flow="0.00" occupancy="0.00" speed="-1.00" length="-1.00" nVehEntered="0"/>
    <interval begin="0.00" end="30.00" id="1504" nVehContrib="0" flow="0.00" occupancy="0.00" speed="-1.00" length="-1.00" nVehEntered="0"/>
    <interval begin="0.00" end="30.00" id="1505" nVehContrib="0" flow="0.00" occupancy="0.00" speed="-1.00" length="-1.00" nVehEntered="0"/>
    <interval begin="0.00" end="30.00" id="1506" nVehContrib="0" flow="0.00" occupancy="0.00" speed="-1.00" length="-1.00" nVehEntered="0"/>
    <interval begin="0.00" end="30.00" id="1507" nVehContrib="0" flow="0.00" occupancy="0.00" speed="-1.00" length="-1.00" nVehEntered="0"/>
    <interval begin="30.00" end="60.00" id="0" nVehContrib="2" flow="240.00" occupancy="60.97" speed="1.26" length="5.00" nVehEntered="1"/>
    <interval begin="30.00" end="60.00" id="1" nVehContrib="1" flow="120.00" occupancy="35.23" speed="0.47" length="5.00" nVehEntered="1"/>
    <interval begin="30.00" end="60.00" id="2" nVehContrib="1" flow="120.00" occupancy="2.98" speed="5.59" length="5.00" nVehEntered="1"/>
    <interval begin="30.00" end="60.00" id="3" nVehContrib="1" flow="120.00" occupancy="2.09" speed="7.99" length="5.00" nVehEntered="2"/>
    <interval begin="30.00" end="60.00" id="4" nVehContrib="2" flow="240.00" occupancy="4.44" speed="7.50" length="5.00" nVehEntered="2"/>
    <interval begin="30.00" end="60.00" id="5" nVehContrib="2" flow="240.00" occupancy="4.61" speed="7.23" length="5.00" nVehEntered="2"/>
    <interval begin="30.00" end="60.00" id="6" nVehContrib="2" flow="240.00" occupancy="4.81" speed="6.94" length="5.00" nVehEntered="2"/>
    <interval begin="30.00" end="60.00" id="7" nVehContrib="2" flow="240.00" occupancy="5.13" speed="6.50" length="5.00" nVehEntered="2"/>
    <interval begin="30.00" end="60.00" id="100" nVehContrib="1" flow="120.00" occupancy="53.84" speed="0.29" length="5.00" nVehEntered="0"/>
    <interval begin="30.00" end="60.00" id="101" nVehContrib="0" flow="0.00" occupancy="0.00" speed="-1.00" length="-1.00" nVehEntered="0"/>
    <interval begin="30.00" end="60.00" id="102" nVehContrib="0" flow="0.00" occupancy="0.00" speed="-1.00" length="-1.00" nVehEntered="1"/>
    <interval begin="30.00" end="60.00" id="103" nVehContrib="1" flow="120.00" occupancy="5.37" speed="3.10" length="5.00" nVehEntered="1"/>
    <interval begin="30.00" end="60.00" id="104" nVehContrib="0" flow="0.00" occupancy="0.00" speed="-1.00" length="-1.00" nVehEntered="0"/>
    <interval begin="30.00" end="60.00" id="105" nVehContrib="0" flow="0.00" occupancy="0.00" speed="-1.00" length="-1.00" nVehEntered="0"/>
    <interval begin="30.00" end="60.00" id="106" nVehContrib="0" flow="0.00" occupancy="0.00" speed="-1.00" length="-1.00" nVehEntered="0"/>
    <interval begin="30.00" end="60.00" id="107" nVehContrib="0" flow="0.00" occupancy="0.00" speed="-1.00" length="-1.00" nVehEntered="0"/>
    <interval begin="30.00" end="60.00" id="200" nVehContrib="1" flow="120.00" occupancy="1.89" speed="8.83" length="5.00" nVehEntered="1"/>
    <interval begin="30.00" end="60.00" id="201" nVehContrib="1" flow="120.00" occupancy="1.96" speed="8.50" length="5.00" nVehEntered="1"/>
    <interval begin="30.00" end="60.00" id="202" nVehContrib="1" flow="120.00" occupancy="4.08" speed="4.09" length="5.00" nVehEntered="1"/>
    <interval begin="30.00" end="60.00" id="203" nVehContrib="0" flow="0.00" occupancy="0.00" speed="-1.00" length="-1.00" nVehEntered="0"/>
    <interval begin="30.00" end="60.00" id="204" nVehContrib="0" flow="0.00" occupancy="0.00" speed="-1.00" length="-1.00" nVehEntered="0"/>
    <interval begin="30.00" end="60.00" id="205" nVehContrib="0" flow="0.00" occupancy="0.00" speed="-1.00" length="-1.00" nVehEntered="0"/>
    <interval begin="30.00" end="60.00" id="206" nVehContrib="0" flow="0.00" occupancy="0.00" speed="-1.00" length="-1.00" nVehEntered="0"/>
    <interval begin="30.00" end="60.00" id="207" nVehContrib="0" flow="0.00" occupancy="0.00" speed="-1.00" length="-1.00" nVehEntered="0"/>
    <interval begin="30.00" end="60.00" id="300" nVehContrib="0" flow="0.00" occupancy="0.00" speed="-1.00" length="-1.00" nVehEntered="0"/>
    <interval begin="30.00" end="60.00" id="301" nVehContrib="0" flow="0.00" occupancy="0.00" speed="-1.00" length="-1.00" nVehEntered="0"/>
    <interval begin="30.00" end="60.00" id="302" nVehContrib="0" flow="0.00" occupancy="0.00" speed="-1.00" length="-1.00" nVehEntered="0"/>
    <interval begin="30.00" end="60.00" id="303" nVehContrib="0" flow="0.00" occupancy="0.00" speed="-1.00" length="-1.00" nVehEntered="0"/>
    <interval begin="30.00" end="60.00" id="304" nVehContrib="0" flow="0.00" occupancy="0.00" speed="-1.00" length="-1.00" nVehEntered="0"/>
    <interval begin="30.00" end="60.00" id="305" nVehContrib="0" flow="0.00" occupancy="0.00" speed="-1.00" length="-1.00" nVehEntered="0"/>
    <interval begin="30.00" end="60.00" id="306" nVehContrib="0" flow="0.00" occupancy="0.00" speed="-1.00" length="-1.00" nVehEntered="0"/>
    <interval begin="30.00" end="60.00" id="307" nVehContrib="0" flow="0.00" occupancy="0.00" speed="-1.00" length="-1.00" nVehEntered="0"/>
    <interval begin="30.00" end="60.00" id="400" nVehContrib="3" flow="360.00" occupancy="62.15" speed="3.58" length="5.00" nVehEntered="2"/>
    <interval begin="30.00" end="60.00" id="401" nVehContrib="2" flow="240.00" occupancy="5.41" speed="6.67" length="5.00" nVehEntered="2"/>
    <interval begin="30.00" end="60.00" id="402" nVehContrib="2" flow="240.00" occupancy="5.70" speed="7.61" length="5.00" nVehEntered="4"/>
    <interval begin="30.00" end="60.00" id="403" nVehContrib="4" flow="480.00" occupancy="8.34" speed="7.99" length="5.00" nVehEntered="4"/>
    <interval begin="30.00" end="60.00" id="404" nVehContrib="4" flow="480.00" occupancy="8.89" speed="7.50" length="5.00" nVehEntered="4"/>
    <interval begin="30.00" end="60.00" id="405" nVehContrib="4" flow="480.00" occupancy="9.22" speed="7.23" length="5.00" nVehEntered="4"/>
    <interval begin="30.00" end="60.00" id="406" nVehContrib="4" flow="480.00" occupancy="9.61" speed="6.94" length="5.00" nVehEntered="4"/>
    <interval begin="30.00" end="60.00" id="407" nVehContrib="4" flow="480.00" occupancy="10.26" speed="6.50" length="5.00" nVehEntered="4"/>
    <interval begin="30.00" end="60.00" id="500" nVehContrib="1" flow="120.00" occupancy="11.01" speed="1.51" length="5.00" nVehEntered="1"/>
    <interval begin="30.00" end="60.00" id="501" nVehContrib="1" flow="120.00" occupancy="2.05" speed="8.12" length="5.00" nVehEntered="1"/>
    <interval begin="30.00" end="60.00" id="502" nVehContrib="1" flow="120.00" occupancy="4.11" speed="4.05" length="5.00" nVehEntered="1"/>
    <interval begin="30.00" end="60.00" id="503" nVehContrib="0" flow="0.00" occupancy="0.00" speed="-1.00" length="-1.00" nVehEntered="0"/>
    <interval begin="30.00" end="60.00" id="504" nVehContrib="0" flow="0.00" occupancy="0.00" speed="-1.00" length="-1.00" nVehEntered="0"/>
    <interval begin="30.00" end="60.00" id="505" nVehContrib="0" flow="0.00" occupancy="0.00" speed="-1.00" length="-1.00" nVehEntered="0"/>
    <interval begin="30.00" end="60.00" id="506" nVehContrib="0" flow="0.00" occupancy="0.00" speed="-1.00" length="-1.00" nVehEntered="0"/>
    <interval begin="30.00" end="60.00" id="507" nVehContrib="0" flow="0.00" occupancy="0.00" speed="-1.00" length="-1.00" nVehEntered="0"/>
    <interval begin="30.00" end="60.00" id="600" nVehContrib="0" flow="0.00" occupancy="0.00" speed="-1.00" length="-1.00" nVehEntered="0"/>
    <interval begin="30.00" end="60.00" id="601" nVehContrib="0" flow="0.00" occupancy="0.00" speed="-1.00" length="-1.00" nVehEntered="0"/>
    <interval begin="30.00" end="60.00" id="602" nVehContrib="0" flow="0.00" occupancy="0.00" speed="-1.00" length="-1.00" nVehEntered="0"/>
    <interval begin="30.00" end="60.00" id="603" nVehContrib="0" flow="0.00" occupancy="0.00" speed="-1.00" length="-1.00" nVehEntered="0"/>
    <interval begin="30.00" end="60.00" id="604" nVehContrib="0" flow="0.00" occupancy="0.00" speed="-1.00" length="-1.00" nVehEntered="0"/>
    <interval begin="30.00" end="60.00" id="605" nVehContrib="0" flow="0.00" occupancy="0.00" speed="-1.00" length="-1.00" nVehEntered="0"/>
    <interval begin="30.00" end="60.00" id="606" nVehContrib="0" flow="0.00" occupancy="0.00" speed="-1.00" length="-1.00" nVehEntered="0"/>
    <interval begin="30.00" end="60.00" id="607" nVehContrib="0" flow="0.00" occupancy="0.00" speed="-1.00" length="-1.00" nVehEntered="0"/>
    <interval begin="30.00" end="60.00" id="700" nVehContrib="0" flow="0.00" occupancy="0.00" speed="-1.00" length="-1.00" nVehEntered="0"/>
    <interval begin="30.00" end="60.00" id="701" nVehContrib="0" flow="0.00" occupancy="0.00" speed="-1.00" length="-1.00" nVehEntered="0"/>
    <interval begin="30.00" end="60.00" id="702" nVehContrib="0" flow="0.00" occupancy="0.00" speed="-1.00" length="-1.00" nVehEntered="0"/>
    <interval begin="30.00" end="60.00" id="703" nVehContrib="0" flow="0.00" occupancy="0.00" speed="-1.00" length="-1.00" nVehEntered="0"/>
    <interval begin="30.00" end="60.00" id="704" nVehContrib="0" flow="0.00" occupancy="0.00" speed="-1.00" length="-1.00" nVehEntered="0"/>
    <interval begin="30.00" end="60.00" id="705" nVehContrib="0" flow="0.00" occupancy="0.00" speed="-1.00" length="-1.00" nVehEntered="0"/>
    <interval begin="30.00" end="60.00" id="706" nVehContrib="0" flow="0.00" occupancy="0.00" speed="-1.00" length="-1.00" nVehEntered="0"/>
    <interval begin="30.00" end="60.00" id="707" nVehContrib="0" flow="0.00" occupancy="0.00" speed="-1.00" length="-1.00" nVehEntered="0"/>
    <interval begin="30.00" end="60.00" id="800" nVehContrib="0" flow="0.00" occupancy="63.84" speed="-1.00" length="-1.00" nVehEntered="1"/>
    <interval begin="30.00" end="60.00" id="801" nVehContrib="1" flow="120.00" occupancy="2.05" speed="8.12" length="5.00" nVehEntered="1"/>
    <interval begin="30.00" end="60.00" id="802" nVehContrib="1" flow="120.00" occupancy="2.07" speed="8.05" length="5.00" nVehEntered="2"/>
    <interval begin="30.00" end="60.00" id="803" nVehContrib="2" flow="240.00" occupancy="4.17" speed="7.99" length="5.00" nVehEntered="2"/>
    <interval begin="30.00" end="60.00" id="804" nVehContrib="2" flow="240.00" occupancy="4.44" speed="7.50" length="5.00" nVehEntered="2"/>
    <interval begin="30.00" end="60.00" id="805" nVehContrib="2" flow="240.00" occupancy="4.61" speed="7.23" length="5.00" nVehEntered="2"/>
    <interval begin="30.00" end="60.00" id="806" nVehContrib="2" flow="240.00" occupancy="4.81" speed="6.94" length="5.00" nVehEntered="2"/>
    <interval begin="30.00" end="60.00" id="807" nVehContrib="2" flow="240.00" occupancy="5.13" speed="6.50" length="5.00" nVehEntered="2"/>
    <interval begin="30.00" end="60.00" id="900" nVehContrib="0" flow="0.00" occupancy="37.17" speed="-1.00" length="-1.00" nVehEntered="1"/>
    <interval begin="30.00" end="60.00" id="901" nVehContrib="1" flow="120.00" occupancy="2.05" speed="8.12" length="5.00" nVehEntered="1"/>
    <interval begin="30.00" end="60.00" id="902" nVehContrib="1" flow="120.00" occupancy="4.11" speed="4.05" length="5.00" nVehEntered="1"/>
    <interval begin="30.00" end="60.00" id="903" nVehContrib="0" flow="0.00" occupancy="0.00" speed="-1.00" length="-1.00" nVehEntered="0"/>
    <interval begin="30.00" end="60.00" id="904" nVehContrib="0" flow="0.00" occupancy="0.00" speed="-1.00" length="-1.00" nVehEntered="0"/>
    <interval begin="30.00" end="60.00" id="905" nVehContrib="0" flow="0.00" occupancy="0.00" speed="-1.00" length="-1.00" nVehEntered="0"/>