<?xml version="1.0" encoding="UTF-8"?>

<!-- generated on Thursday 14 September 2017 10:47:31 AM IST by SUMO gui Version 0.30.0
<?xml version="1.0" encoding="UTF-8"?>

<configuration xmlns:xsi="http://www.w3.org/2001/XMLSchema-instance" xsi:noNamespaceSchemaLocation="http://sumo.dlr.de/xsd/sumoConfiguration.xsd">

    <input>
        <net-file value="hello.net.xml"/>
        <route-files value="hello.rou.xml"/>
    </input>

    <output>
        <tripinfo-output value="tripinfo.xml"/>
    </output>

    <time>
        <begin value="0"/>
        <end value="10000000"/>
    </time>

    <traci_server>
        <remote-port value="58167"/>
    </traci_server>

    <gui_only>
        <gui-settings-file value="hello.settings.xml"/>
    </gui_only>

</configuration>
-->

<tripinfos xmlns:xsi="http://www.w3.org/2001/XMLSchema-instance" xsi:noNamespaceSchemaLocation="http://sumo.dlr.de/xsd/tripinfo_file.xsd">
    <tripinfo id="type4.0" depart="3.00" departLane="down-up-1_0" departPos="5.10" departSpeed="0.00" departDelay="0.00" arrival="31.00" arrivalLane="down-up-2_0" arrivalPos="85.35" arrivalSpeed="13.90" duration="28.00" routeLength="194.90" waitSteps="0" timeLoss="13.39" rerouteNo="0" devices="tripinfo_type4.0" vType="Car" speedFactor="1.00" vaporized=""/>
    <tripinfo id="type4.1" depart="8.00" departLane="down-up-1_0" departPos="5.10" departSpeed="0.00" departDelay="1.00" arrival="37.00" arrivalLane="down-up-2_0" arrivalPos="85.35" arrivalSpeed="13.90" duration="29.00" routeLength="194.90" waitSteps="1" timeLoss="14.39" rerouteNo="0" devices="tripinfo_type4.1" vType="Car" speedFactor="1.00" vaporized=""/>
    <tripinfo id="type2.0" depart="11.00" departLane="up-down-1_0" departPos="5.10" departSpeed="0.00" departDelay="0.00" arrival="39.00" arrivalLane="up-down-2_0" arrivalPos="85.35" arrivalSpeed="13.90" duration="28.00" routeLength="194.90" waitSteps="0" timeLoss="13.39" rerouteNo="0" devices="tripinfo_type2.0" vType="Car" speedFactor="1.00" vaporized=""/>
    <tripinfo id="type1.3" depart="30.00" departLane="left-right-1_0" departPos="5.10" departSpeed="0.00" departDelay="0.00" arrival="58.00" arrivalLane="left-right-2_2" arrivalPos="85.35" arrivalSpeed="13.90" duration="28.00" routeLength="194.90" waitSteps="0" timeLoss="13.39" rerouteNo="0" devices="tripinfo_type1.3" vType="Car" speedFactor="1.00" vaporized=""/>
    <tripinfo id="type3.1" depart="25.00" departLane="right-left-1_0" departPos="5.10" departSpeed="0.00" departDelay="0.00" arrival="66.00" arrivalLane="right-left-2_1" arrivalPos="85.35" arrivalSpeed="11.00" duration="41.00" routeLength="194.90" waitSteps="1" timeLoss="26.19" rerouteNo="0" devices="tripinfo_type3.1" vType="Car" speedFactor="1.00" vaporized=""/>
    <tripinfo id="type1.1" depart="11.00" departLane="left-right-1_0" departPos="5.10" departSpeed="0.00" departDelay="0.00" arrival="66.00" arrivalLane="left-right-2_1" arrivalPos="85.35" arrivalSpeed="11.00" duration="55.00" routeLength="194.90" waitSteps="15" timeLoss="40.19" rerouteNo="0" devices="tripinfo_type1.1" vType="Car" speedFactor="1.00" vaporized=""/>
    <tripinfo id="type1.0" depart="1.00" departLane="left-right-1_0" departPos="5.10" departSpeed="0.00" departDelay="0.00" arrival="66.00" arrivalLane="left-right-2_0" arrivalPos="85.35" arrivalSpeed="11.00" duration="65.00" routeLength="194.90" waitSteps="25" timeLoss="50.19" rerouteNo="0" devices="tripinfo_type1.0" vType="Car" speedFactor="1.00" vaporized=""/>
    <tripinfo id="type3.0" depart="0.00" departLane="right-left-1_0" departPos="5.10" departSpeed="0.00" departDelay="0.00" arrival="66.00" arrivalLane="right-left-2_0" arrivalPos="85.35" arrivalSpeed="11.00" duration="66.00" routeLength="194.90" waitSteps="26" timeLoss="51.19" rerouteNo="0" devices="tripinfo_type3.0" vType="Car" speedFactor="1.00" vaporized=""/>
    <tripinfo id="type1.2" depart="21.00" departLane="left-right-1_0" departPos="5.10" departSpeed="0.00" departDelay="0.00" arrival="67.00" arrivalLane="left-right-2_0" arrivalPos="85.35" arrivalSpeed="11.00" duration="46.00" routeLength="194.90" waitSteps="7" timeLoss="31.72" rerouteNo="0" devices="tripinfo_type1.2" vType="Car" speedFactor="1.00" vaporized=""/>
    <tripinfo id="type3.2" depart="30.00" departLane="right-left-1_0" departPos="5.10" departSpeed="0.00" departDelay="0.00" arrival="67.00" arrivalLane="right-left-2_0" arrivalPos="85.35" arrivalSpeed="11.00" duration="37.00" routeLength="194.90" waitSteps="1" timeLoss="22.73" rerouteNo="0" devices="tripinfo_type3.2" vType="Car" speedFactor="1.00" vaporized=""/>
    <tripinfo id="type3.3" depart="36.00" departLane="right-left-1_0" departPos="5.10" departSpeed="0.00" departDelay="5.00" arrival="69.00" arrivalLane="right-left-2_0" arrivalPos="85.35" arrivalSpeed="11.50" duration="33.00" routeLength="194.90" waitSteps="1" timeLoss="18.44" rerouteNo="0" devices="tripinfo_type3.3" vType="Car" speedFactor="1.00" vaporized=""/>
    <tripinfo id="type3.4" depart="42.00" departLane="right-left-1_0" departPos="5.10" departSpeed="0.00" departDelay="9.00" arrival="71.00" arrivalLane="right-left-2_0" arrivalPos="85.35" arrivalSpeed="13.90" duration="29.00" routeLength="194.90" waitSteps="1" timeLoss="14.39" rerouteNo="0" devices="tripinfo_type3.4" vType="Car" speedFactor="1.00" vaporized=""/>
    <tripinfo id="type1.4" depart="49.00" departLane="left-right-1_0" departPos="5.10" departSpeed="0.00" departDelay="0.00" arrival="77.00" arrivalLane="left-right-2_0" arrivalPos="85.35" arrivalSpeed="13.90" duration="28.00" routeLength="194.90" waitSteps="0" timeLoss="13.39" rerouteNo="0" devices="tripinfo_type1.4" vType="Car" speedFactor="1.00" vaporized=""/>
    <tripinfo id="type3.5" depart="48.00" departLane="right-left-1_0" departPos="5.10" departSpeed="0.00" departDelay="5.00" arrival="77.00" arrivalLane="right-left-2_0" arrivalPos="85.35" arrivalSpeed="13.90" duration="29.00" routeLength="194.90" waitSteps="1" timeLoss="14.39" rerouteNo="0" devices="tripinfo_type3.5" vType="Car" speedFactor="1.00" vaporized=""/>
    <tripinfo id="type1.5" depart="54.00" departLane="left-right-1_0" departPos="5.10" departSpeed="0.00" departDelay="1.00" arrival="83.00" arrivalLane="left-right-2_0" arrivalPos="85.35" arrivalSpeed="13.90" duration="29.00" routeLength="194.90" waitSteps="1" timeLoss="14.39" rerouteNo="0" devices="tripinfo_type1.5" vType="Car" speedFactor="1.00" vaporized=""/>
    <tripinfo id="type3.6" depart="54.00" departLane="right-left-1_0" departPos="5.10" departSpeed="0.00" departDelay="4.00" arrival="83.00" arrivalLane="right-left-2_0" arrivalPos="85.35" arrivalSpeed="13.90" duration="29.00" routeLength="194.90" waitSteps="1" timeLoss="14.39" rerouteNo="0" devices="tripinfo_type3.6" vType="Car" speedFactor="1.00" vaporized=""/>
    <tripinfo id="type2.4" depart="75.00" departLane="up-down-1_0" departPos="5.10" departSpeed="0.00" departDelay="3.00" arrival="104.00" arrivalLane="up-down-2_2" arrivalPos="85.35" arrivalSpeed="13.90" duration="29.00" routeLength="194.90" waitSteps="1" timeLoss="14.39" rerouteNo="0" devices="tripinfo_type2.4" vType="Car" speedFactor="1.00" vaporized=""/>
    <tripinfo id="type4.8" depart="56.00" departLane="down-up-1_0" departPos="5.10" departSpeed="0.00" departDelay="5.00" arrival="111.00" arrivalLane="down-up-2_3" arrivalPos="85.35" arrivalSpeed="11.00" duration="55.00" routeLength="194.90" waitSteps="15" timeLoss="40.19" rerouteNo="0" devices="tripinfo_type4.8" vType="Car" speedFactor="1.00" vaporized=""/>
    <tripinfo id="type4.5" depart="32.00" departLane="down-up-1_0" departPos="5.10" departSpeed="0.00" departDelay="3.00" arrival="111.00" arrivalLane="down-up-2_2" arrivalPos="85.35" arrivalSpeed="11.00" duration="79.00" routeLength="194.90" waitSteps="39" timeLoss="64.19" rerouteNo="0" devices="tripinfo_type4.5" vType="Car" speedFactor="1.00" vaporized=""/>
    <tripinfo id="type2.2" depart="31.00" departLane="up-down-1_0" departPos="5.10" departSpeed="0.00" departDelay="0.00" arrival="111.00" arrivalLane="up-down-2_1" arrivalPos="85.35" arrivalSpeed="11.00" duration="80.00" routeLength="194.90" waitSteps="40" timeLoss="65.19" rerouteNo="0" devices="tripinfo_type2.2" vType="Car" speedFactor="1.00" vaporized=""/>
    <tripinfo id="type4.3" depart="20.00" departLane="down-up-1_0" departPos="5.10" departSpeed="0.00" departDelay="2.00" arrival="111.00" arrivalLane="down-up-2_1" arrivalPos="85.35" arrivalSpeed="11.00" duration="91.00" routeLength="194.90" waitSteps="51" timeLoss="76.19" rerouteNo="0" devices="tripinfo_type4.3" vType="Car" speedFactor="1.00" vaporized=""/>
    <tripinfo id="type2.1" depart="23.00" departLane="up-down-1_0" departPos="5.10" departSpeed="0.00" departDelay="0.00" arrival="111.00" arrivalLane="up-down-2_0" arrivalPos="85.35" arrivalSpeed="11.00" duration="88.00" routeLength="194.90" waitSteps="48" timeLoss="73.19" rerouteNo="0" devices="tripinfo_type2.1" vType="Car" speedFactor="1.00" vaporized=""/>
    <tripinfo id="type4.2" depart="14.00" departLane="down-up-1_0" departPos="5.10" departSpeed="0.00" departDelay="5.00" arrival="111.00" arrivalLane="down-up-2_0" arrivalPos="85.35" arrivalSpeed="11.00" duration="97.00" routeLength="194.90" waitSteps="57" timeLoss="82.19" rerouteNo="0" devices="tripinfo_type4.2" vType="Car" speedFactor="1.00" vaporized=""/>
    <tripinfo id="type4.9" depart="62.00" departLane="down-up-1_0" departPos="5.10" departSpeed="0.00" departDelay="7.00" arrival="112.00" arrivalLane="down-up-2_2" arrivalPos="85.35" arrivalSpeed="11.00" duration="50.00" routeLength="194.90" waitSteps="11" timeLoss="35.72" rerouteNo="0" devices="tripinfo_type4.9" vType="Car" speedFactor="1.00" vaporized=""/>
    <tripinfo id="type4.6" depart="45.00" departLane="down-up-1_0" departPos="5.10" departSpeed="0.00" departDelay="0.00" arrival="112.00" arrivalLane="down-up-2_1" arrivalPos="85.35" arrivalSpeed="11.00" duration="67.00" routeLength="194.90" waitSteps="28" timeLoss="52.70" rerouteNo="0" devices="tripinfo_type4.6" vType="Car" speedFactor="1.00" vaporized=""/>
    <tripinfo id="type2.3" depart="70.00" departLane="up-down-1_0" departPos="5.10" departSpeed="0.00" departDelay="0.00" arrival="112.00" arrivalLane="up-down-2_0" arrivalPos="85.35" arrivalSpeed="11.00" duration="42.00" routeLength="194.90" waitSteps="3" timeLoss="27.72" rerouteNo="0" devices="tripinfo_type2.3" vType="Car" speedFactor="1.00" vaporized=""/>
    <tripinfo id="type4.4" depart="27.00" departLane="down-up-1_0" departPos="5.10" departSpeed="0.00" departDelay="0.00" arrival="112.00" arrivalLane="down-up-2_0" arrivalPos="85.35" arrivalSpeed="11.00" duration="85.00" routeLength="194.90" waitSteps="46" timeLoss="70.68" rerouteNo="0" devices="tripinfo_type4.4" vType="Car" speedFactor="1.00" vaporized=""/>
    <tripinfo id="type4.10" depart="75.00" departLane="down-up-1_0" departPos="5.10" departSpeed="0.00" departDelay="0.00" arrival="114.00" arrivalLane="down-up-2_1" arrivalPos="85.35" arrivalSpeed="11.50" duration="39.00" routeLength="194.90" waitSteps="0" timeLoss="24.44" rerouteNo="0" devices="tripinfo_type4.10" vType="Car" speedFactor="1.00" vaporized=""/>
    <tripinfo id="type2.5" depart="81.00" departLane="up-down-1_0" departPos="5.10" departSpeed="0.00" departDelay="5.00" arrival="114.00" arrivalLane="up-down-2_0" arrivalPos="85.35" arrivalSpeed="11.50" duration="33.00" routeLength="194.90" waitSteps="1" timeLoss="18.44" rerouteNo="0" devices="tripinfo_type2.5" vType="Car" speedFactor="1.00" vaporized=""/>
    <tripinfo id="type4.7" depart="50.00" departLane="down-up-1_0" departPos="5.10" departSpeed="0.00" departDelay="2.00" arrival="114.00" arrivalLane="down-up-2_0" arrivalPos="85.35" arrivalSpeed="11.50" duration="64.00" routeLength="194.90" waitSteps="25" timeLoss="49.41" rerouteNo="0" devices="tripinfo_type4.7" vType="Car" speedFactor="1.00" vaporized=""/>
    <tripinfo id="type2.6" depart="87.00" departLane="up-down-1_0" departPos="5.10" departSpeed="0.00" departDelay="4.00" arrival="116.00" arrivalLane="up-down-2_0" arrivalPos="85.35" arrivalSpeed="13.90" duration="29.00" routeLength="194.90" waitSteps="1" timeLoss="14.39" rerouteNo="0" devices="tripinfo_type2.6" vType="Car" speedFactor="1.00" vaporized=""/>
    <tripinfo id="type4.11" depart="80.00" departLane="down-up-1_0" departPos="5.10" departSpeed="0.00" departDelay="2.00" arrival="116.00" arrivalLane="down-up-2_0" arrivalPos="85.35" arrivalSpeed="12.00" duration="36.00" routeLength="194.90" waitSteps="1" timeLoss="21.11" rerouteNo="0" devices="tripinfo_type4.11" vType="Car" speedFactor="1.00" vaporized=""/>
    <tripinfo id="type4.12" depart="86.00" departLane="down-up-1_0" departPos="5.10" departSpeed="0.00" departDelay="7.00" arrival="117.00" arrivalLane="down-up-2_0" arrivalPos="85.35" arrivalSpeed="12.00" duration="31.00" routeLength="194.90" waitSteps="1" timeLoss="16.66" rerouteNo="0" devices="tripinfo_type4.12" vType="Car" speedFactor="1.00" vaporized=""/>
    <tripinfo id="type4.13" depart="92.00" departLane="down-up-1_0" departPos="5.10" departSpeed="0.00" departDelay="12.00" arrival="121.00" arrivalLane="down-up-2_0" arrivalPos="85.35" arrivalSpeed="13.90" duration="29.00" routeLength="194.90" waitSteps="1" timeLoss="14.39" rerouteNo="0" devices="tripinfo_type4.13" vType="Car" speedFactor="1.00" vaporized=""/>
    <tripinfo id="type4.14" depart="98.00" departLane="down-up-1_0" departPos="5.10" departSpeed="0.00" departDelay="14.00" arrival="127.00" arrivalLane="down-up-2_0" arrivalPos="85.35" arrivalSpeed="13.90" duration="29.00" routeLength="194.90" waitSteps="1" timeLoss="14.39" rerouteNo="0" devices="tripinfo_type4.14" vType="Car" speedFactor="1.00" vaporized=""/>
    <tripinfo id="type2.7" depart="101.00" departLane="up-down-1_0" departPos="5.10" departSpeed="0.00" departDelay="0.00" arrival="129.00" arrivalLane="up-down-2_0" arrivalPos="85.35" arrivalSpeed="13.90" duration="28.00" routeLength="194.90" waitSteps="0" timeLoss="13.39" rerouteNo="0" devices="tripinfo_type2.7" vType="Car" speedFactor="1.00" vaporized=""/>
    <tripinfo id="type3.13" depart="107.00" departLane="right-left-1_0" departPos="5.10" departSpeed="0.00" departDelay="0.00" arrival="156.00" arrivalLane="right-left-2_3" arrivalPos="85.35" arrivalSpeed="11.00" duration="49.00" routeLength="194.90" waitSteps="9" timeLoss="34.19" rerouteNo="0" devices="tripinfo_type3.13" vType="Car" speedFactor="1.00" vaporized=""/>
    <tripinfo id="type1.9" depart="98.00" departLane="left-right-1_0" departPos="5.10" departSpeed="0.00" departDelay="5.00" arrival="156.00" arrivalLane="left-right-2_2" arrivalPos="85.35" arrivalSpeed="11.00" duration="58.00" routeLength="194.90" waitSteps="18" timeLoss="43.19" rerouteNo="0" devices="tripinfo_type1.9" vType="Car" speedFactor="1.00" vaporized=""/>
    <tripinfo id="type1.7" depart="87.00" departLane="left-right-1_0" departPos="5.10" departSpeed="0.00" departDelay="0.00" arrival="156.00" arrivalLane="left-right-2_1" arrivalPos="85.35" arrivalSpeed="11.00" duration="69.00" routeLength="194.90" waitSteps="29" timeLoss="54.19" rerouteNo="0" devices="tripinfo_type1.7" vType="Car" speedFactor="1.00" vaporized=""/>
    <tripinfo id="type3.10" depart="81.00" departLane="right-left-1_0" departPos="5.10" departSpeed="0.00" departDelay="2.00" arrival="156.00" arrivalLane="right-left-2_2" arrivalPos="85.35" arrivalSpeed="11.00" duration="75.00" routeLength="194.90" waitSteps="35" timeLoss="60.19" rerouteNo="0" devices="tripinfo_type3.10" vType="Car" speedFactor="1.00" vaporized=""/>
    <tripinfo id="type3.8" depart="66.00" departLane="right-left-1_0" departPos="5.10" departSpeed="0.00" departDelay="1.00" arrival="156.00" arrivalLane="right-left-2_1" arrivalPos="85.35" arrivalSpeed="11.00" duration="90.00" routeLength="194.90" waitSteps="50" timeLoss="75.19" rerouteNo="0" devices="tripinfo_type3.8" vType="Car" speedFactor="1.00" vaporized=""/>
    <tripinfo id="type1.6" depart="76.00" departLane="left-right-1_0" departPos="5.10" departSpeed="0.00" departDelay="0.00" arrival="156.00" arrivalLane="left-right-2_0" arrivalPos="85.35" arrivalSpeed="11.00" duration="80.00" routeLength="194.90" waitSteps="40" timeLoss="65.19" rerouteNo="0" devices="tripinfo_type1.6" vType="Car" speedFactor="1.00" vaporized=""/>
    <tripinfo id="type3.7" depart="60.00" departLane="right-left-1_0" departPos="5.10" departSpeed="0.00" departDelay="1.00" arrival="156.00" arrivalLane="right-left-2_0" arrivalPos="85.35" arrivalSpeed="11.00" duration="96.00" routeLength="194.90" waitSteps="56" timeLoss="81.19" rerouteNo="0" devices="tripinfo_type3.7" vType="Car" speedFactor="1.00" vaporized=""/>
    <tripinfo id="type1.10" depart="104.00" departLane="left-right-1_0" departPos="5.10" departSpeed="0.00" departDelay="8.00" arrival="157.00" arrivalLane="left-right-2_1" arrivalPos="85.35" arrivalSpeed="11.00" duration="53.00" routeLength="194.90" waitSteps="14" timeLoss="38.71" rerouteNo="0" devices="tripinfo_type1.10" vType="Car" speedFactor="1.00" vaporized=""/>
    <tripinfo id="type3.14" depart="112.00" departLane="right-left-1_0" departPos="5.10" departSpeed="0.00" departDelay="4.00" arrival="157.00" arrivalLane="right-left-2_2" arrivalPos="85.35" arrivalSpeed="11.00" duration="45.00" routeLength="194.90" waitSteps="6" timeLoss="30.72" rerouteNo="0" devices="tripinfo_type3.14" vType="Car" speedFactor="1.00" vaporized=""/>
    <tripinfo id="type3.11" depart="87.00" departLane="right-left-1_0" departPos="5.10" departSpeed="0.00" departDelay="2.00" arrival="157.00" arrivalLane="right-left-2_1" arrivalPos="85.35" arrivalSpeed="11.00" duration="70.00" routeLength="194.90" waitSteps="31" timeLoss="55.70" rerouteNo="0" devices="tripinfo_type3.11" vType="Car" speedFactor="1.00" vaporized=""/>
    <tripinfo id="type1.8" depart="92.00" departLane="left-right-1_0" departPos="5.10" departSpeed="0.00" departDelay="4.00" arrival="157.00" arrivalLane="left-right-2_0" arrivalPos="85.35" arrivalSpeed="11.00" duration="65.00" routeLength="194.90" waitSteps="26" timeLoss="50.70" rerouteNo="0" devices="tripinfo_type1.8" vType="Car" speedFactor="1.00" vaporized=""/>
    <tripinfo id="type3.9" depart="76.00" departLane="right-left-1_0" departPos="5.10" departSpeed="0.00" departDelay="0.00" arrival="157.00" arrivalLane="right-left-2_0" arrivalPos="85.35" arrivalSpeed="11.00" duration="81.00" routeLength="194.90" waitSteps="42" timeLoss="66.68" rerouteNo="0" devices="tripinfo_type3.9" vType="Car" speedFactor="1.00" vaporized=""/>
    <tripinfo id="type3.15" depart="118.00" departLane="right-left-1_0" departPos="5.10" departSpeed="0.00" departDelay="2.00" arrival="159.00" arrivalLane="right-left-2_1" arrivalPos="85.35" arrivalSpeed="11.50" duration="41.00" routeLength="194.90" waitSteps="2" timeLoss="26.44" rerouteNo="0" devices="tripinfo_type3.15" vType="Car" speedFactor="1.00" vaporized=""/>
    <tripinfo id="type1.11" depart="112.00" departLane="left-right-1_0" departPos="5.10" departSpeed="0.00" departDelay="0.00" arrival="159.00" arrivalLane="left-right-2_0" arrivalPos="85.35" arrivalSpeed="11.50" duration="47.00" routeLength="194.90" waitSteps="8" timeLoss="32.43" rerouteNo="0" devices="tripinfo_type1.11" vType="Car" speedFactor="1.00" vaporized=""/>
    <tripinfo id="type3.12" depart="99.00" departLane="right-left-1_0" departPos="5.10" departSpeed="0.00" departDelay="0.00" arrival="159.00" arrivalLane="right-left-2_0" arrivalPos="85.35" arrivalSpeed="11.50" duration="60.00" routeLength="194.90" waitSteps="21" timeLoss="45.42" rerouteNo="0" devices="tripinfo_type3.12" vType="Car" speedFactor="1.00" vaporized=""/>
    <tripinfo id="type1.12" depart="146.00" departLane="left-right-1_0" departPos="5.10" departSpeed="0.00" departDelay="0.00" arrival="174.00" arrivalLane="left-right-2_0" arrivalPos="85.35" arrivalSpeed="13.90" duration="28.00" routeLength="194.90" waitSteps="0" timeLoss="13.39" rerouteNo="0" devices="tripinfo_type1.12" vType="Car" speedFactor="1.00" vaporized=""/>
    <tripinfo id="type2.14" depart="154.00" departLane="up-down-1_0" departPos="5.10" departSpeed="0.00" departDelay="6.00" arrival="201.00" arrivalLane="up-down-2_3" arrivalPos="85.35" arrivalSpeed="11.00" duration="47.00" routeLength="194.90" waitSteps="7" timeLoss="32.19" rerouteNo="0" devices="tripinfo_type2.14" vType="Car" speedFactor="1.00" vaporized=""/>
    <tripinfo id="type4.21" depart="141.00" departLane="down-up-1_0" departPos="5.10" departSpeed="0.00" departDelay="1.00" arrival="201.00" arrivalLane="down-up-2_3" arrivalPos="85.35" arrivalSpeed="11.00" duration="60.00" routeLength="194.90" waitSteps="20" timeLoss="45.19" rerouteNo="0" devices="tripinfo_type4.21" vType="Car" speedFactor="1.00" vaporized=""/>
    <tripinfo id="type2.11" depart="136.00" departLane="up-down-1_0" departPos="5.10" departSpeed="0.00" departDelay="1.00" arrival="201.00" arrivalLane="up-down-2_2" arrivalPos="85.35" arrivalSpeed="11.00" duration="65.00" routeLength="194.90" waitSteps="25" timeLoss="50.19" rerouteNo="0" devices="tripinfo_type2.11" vType="Car" speedFactor="1.00" vaporized=""/>
    <tripinfo id="type2.9" depart="124.00" departLane="up-down-1_0" departPos="5.10" departSpeed="0.00" departDelay="0.00" arrival="201.00" arrivalLane="up-down-2_1" arrivalPos="85.35" arrivalSpeed="11.00" duration="77.00" routeLength="194.90" waitSteps="37" timeLoss="62.19" rerouteNo="0" devices="tripinfo_type2.9" vType="Car" speedFactor="1.00" vaporized=""/>
    <tripinfo id="type4.18" depart="122.00" departLane="down-up-1_0" departPos="5.10" departSpeed="0.00" departDelay="2.00" arrival="201.00" arrivalLane="down-up-2_2" arrivalPos="85.35" arrivalSpeed="11.00" duration="79.00" routeLength="194.90" waitSteps="39" timeLoss="64.19" rerouteNo="0" devices="tripinfo_type4.18" vType="Car" speedFactor="1.00" vaporized=""/>
    <tripinfo id="type4.16" depart="110.00" departLane="down-up-1_0" departPos="5.10" departSpeed="0.00" departDelay="9.00" arrival="201.00" arrivalLane="down-up-2_1" arrivalPos="85.35" arrivalSpeed="11.00" duration="91.00" routeLength="194.90" waitSteps="51" timeLoss="76.19" rerouteNo="0" devices="tripinfo_type4.16" vType="Car" speedFactor="1.00" vaporized=""/>
    <tripinfo id="type2.8" depart="113.00" departLane="up-down-1_0" departPos="5.10" departSpeed="0.00" departDelay="0.00" arrival="201.00" arrivalLane="up-down-2_0" arrivalPos="85.35" arrivalSpeed="11.00" duration="88.00" routeLength="194.90" waitSteps="48" timeLoss="73.19" rerouteNo="0" devices="tripinfo_type2.8" vType="Car" speedFactor="1.00" vaporized=""/>
    <tripinfo id="type4.15" depart="104.00" departLane="down-up-1_0" departPos="5.10" departSpeed="0.00" departDelay="11.00" arrival="201.00" arrivalLane="down-up-2_0" arrivalPos="85.35" arrivalSpeed="11.00" duration="97.00" routeLength="194.90" waitSteps="57" timeLoss="82.19" rerouteNo="0" devices="tripinfo_type4.15" vType="Car" speedFactor="1.00" vaporized=""/>
    <tripinfo id="type4.25" depart="165.00" departLane="down-up-1_0" departPos="5.10" departSpeed="0.00" departDelay="1.00" arrival="202.00" arrivalLane="down-up-2_3" arrivalPos="85.35" arrivalSpeed="11.00" duration="37.00" routeLength="194.90" waitSteps="1" timeLoss="22.73" rerouteNo="0" devices="tripinfo_type4.25" vType="Car" speedFactor="1.00" vaporized=""/>
    <tripinfo id="type2.15" depart="160.00" departLane="up-down-1_0" departPos="5.10" departSpeed="0.00" departDelay="4.00" arrival="202.00" arrivalLane="up-down-2_2" arrivalPos="85.35" arrivalSpeed="11.00" duration="42.00" routeLength="194.90" waitSteps="3" timeLoss="27.72" rerouteNo="0" devices="tripinfo_type2.15" vType="Car" speedFactor="1.00" vaporized=""/>
    <tripinfo id="type2.12" depart="142.00" departLane="up-down-1_0" departPos="5.10" departSpeed="0.00" departDelay="4.00" arrival="202.00" arrivalLane="up-down-2_1" arrivalPos="85.35" arrivalSpeed="11.00" duration="60.00" routeLength="194.90" waitSteps="21" timeLoss="45.71" rerouteNo="0" devices="tripinfo_type2.12" vType="Car" speedFactor="1.00" vaporized=""/>
    <tripinfo id="type4.22" depart="147.00" departLane="down-up-1_0" departPos="5.10" departSpeed="0.00" departDelay="4.00" arrival="202.00" arrivalLane="down-up-2_2" arrivalPos="85.35" arrivalSpeed="11.00" duration="55.00" routeLength="194.90" waitSteps="16" timeLoss="40.71" rerouteNo="0" devices="tripinfo_type4.22" vType="Car" speedFactor="1.00" vaporized=""/>
    <tripinfo id="type4.19" depart="130.00" departLane="down-up-1_0" departPos="5.10" departSpeed="0.00" departDelay="0.00" arrival="202.00" arrivalLane="down-up-2_1" arrivalPos="85.35" arrivalSpeed="11.00" duration="72.00" routeLength="194.90" waitSteps="33" timeLoss="57.69" rerouteNo="0" devices="tripinfo_type4.19" vType="Car" speedFactor="1.00" vaporized=""/>
    <tripinfo id="type2.10" depart="131.00" departLane="up-down-1_0" departPos="5.10" departSpeed="0.00" departDelay="0.00" arrival="202.00" arrivalLane="up-down-2_0" arrivalPos="85.35" arrivalSpeed="11.00" duration="71.00" routeLength="194.90" waitSteps="32" timeLoss="56.69" rerouteNo="0" devices="tripinfo_type2.10" vType="Car" speedFactor="1.00" vaporized=""/>
    <tripinfo id="type4.17" depart="116.00" departLane="down-up-1_0" departPos="5.10" departSpeed="0.00" departDelay="14.00" arrival="202.00" arrivalLane="down-up-2_0" arrivalPos="85.35" arrivalSpeed="11.00" duration="86.00" routeLength="194.90" waitSteps="47" timeLoss="71.68" rerouteNo="0" devices="tripinfo_type4.17" vType="Car" speedFactor="1.00" vaporized=""/>
    <tripinfo id="type2.16" depart="166.00" departLane="up-down-1_0" departPos="5.10" departSpeed="0.00" departDelay="3.00" arrival="204.00" arrivalLane="up-down-2_1" arrivalPos="85.35" arrivalSpeed="11.50" duration="38.00" routeLength="194.90" waitSteps="1" timeLoss="23.44" rerouteNo="0" devices="tripinfo_type2.16" vType="Car" speedFactor="1.00" vaporized=""/>
    <tripinfo id="type4.23" depart="153.00" departLane="down-up-1_0" departPos="5.10" departSpeed="0.00" departDelay="4.00" arrival="204.00" arrivalLane="down-up-2_1" arrivalPos="85.35" arrivalSpeed="11.50" duration="51.00" routeLength="194.90" waitSteps="12" timeLoss="36.43" rerouteNo="0" devices="tripinfo_type4.23" vType="Car" speedFactor="1.00" vaporized=""/>
    <tripinfo id="type2.13" depart="148.00" departLane="up-down-1_0" departPos="5.10" departSpeed="0.00" departDelay="7.00" arrival="204.00" arrivalLane="up-down-2_0" arrivalPos="85.35" arrivalSpeed="11.50" duration="56.00" routeLength="194.90" waitSteps="17" timeLoss="41.42" rerouteNo="0" devices="tripinfo_type2.13" vType="Car" speedFactor="1.00" vaporized=""/>
    <tripinfo id="type4.20" depart="135.00" departLane="down-up-1_0" departPos="5.10" departSpeed="0.00" departDelay="2.00" arrival="204.00" arrivalLane="down-up-2_0" arrivalPos="85.35" arrivalSpeed="11.50" duration="69.00" routeLength="194.90" waitSteps="30" timeLoss="54.41" rerouteNo="0" devices="tripinfo_type4.20" vType="Car" speedFactor="1.00" vaporized=""/>
    <tripinfo id="type4.26" depart="174.00" departLane="down-up-1_0" departPos="5.10" departSpeed="0.00" departDelay="0.00" arrival="206.00" arrivalLane="down-up-2_1" arrivalPos="85.35" arrivalSpeed="12.00" duration="32.00" routeLength="194.90" waitSteps="0" timeLoss="17.11" rerouteNo="0" devices="tripinfo_type4.26" vType="Car" speedFactor="1.00" vaporized=""/>
    <tripinfo id="type2.17" depart="172.00" departLane="up-down-1_0" departPos="5.10" departSpeed="0.00" departDelay="7.00" arrival="206.00" arrivalLane="up-down-2_0" arrivalPos="85.35" arrivalSpeed="12.00" duration="34.00" routeLength="194.90" waitSteps="1" timeLoss="19.11" rerouteNo="0" devices="tripinfo_type2.17" vType="Car" speedFactor="1.00" vaporized=""/>
    <tripinfo id="type4.24" depart="159.00" departLane="down-up-1_0" departPos="5.10" departSpeed="0.00" departDelay="3.00" arrival="206.00" arrivalLane="down-up-2_0" arrivalPos="85.35" arrivalSpeed="12.00" duration="47.00" routeLength="194.90" waitSteps="8" timeLoss="32.11" rerouteNo="0" devices="tripinfo_type4.24" vType="Car" speedFactor="1.00" vaporized=""/>
    <tripinfo id="type2.18" depart="178.00" departLane="up-down-1_0" departPos="5.10" departSpeed="0.00" departDelay="12.00" arrival="207.00" arrivalLane="up-down-2_0" arrivalPos="85.35" arrivalSpeed="12.63" duration="29.00" routeLength="194.90" waitSteps="1" timeLoss="14.70" rerouteNo="0" devices="tripinfo_type2.18" vType="Car" speedFactor="1.00" vaporized=""/>
    <tripinfo id="type2.19" depart="184.00" departLane="up-down-1_0" departPos="5.10" departSpeed="0.00" departDelay="17.00" arrival="213.00" arrivalLane="up-down-2_0" arrivalPos="85.35" arrivalSpeed="13.90" duration="29.00" routeLength="194.90" waitSteps="1" timeLoss="14.39" rerouteNo="0" devices="tripinfo_type2.19" vType="Car" speedFactor="1.00" vaporized=""/>
    <tripinfo id="type4.27" depart="190.00" departLane="down-up-1_0" departPos="5.10" departSpeed="0.00" departDelay="0.00" arrival="218.00" arrivalLane="down-up-2_0" arrivalPos="85.35" arrivalSpeed="13.90" duration="28.00" routeLength="194.90" waitSteps="0" timeLoss="13.39" rerouteNo="0" devices="tripinfo_type4.27" vType="Car" speedFactor="1.00" vaporized=""/>
    <tripinfo id="type2.20" depart="190.00" departLane="up-down-1_0" departPos="5.10" departSpeed="0.00" departDelay="13.00" arrival="219.00" arrivalLane="up-down-2_0" arrivalPos="85.35" arrivalSpeed="13.90" duration="29.00" routeLength="194.90" waitSteps="1" timeLoss="14.39" rerouteNo="0" devices="tripinfo_type2.20" vType="Car" speedFactor="1.00" vaporized=""/>
    <tripinfo id="type1.19" depart="209.00" departLane="left-right-1_0" departPos="5.10" departSpeed="0.00" departDelay="0.00" arrival="237.00" arrivalLane="left-right-2_3" arrivalPos="85.35" arrivalSpeed="13.90" duration="28.00" routeLength="194.90" waitSteps="0" timeLoss="13.39" rerouteNo="0" devices="tripinfo_type1.19" vType="Car" speedFactor="1.00" vaporized=""/>