<?xml version="1.0" encoding="UTF-8"?>

<!-- generated on Wednesday 20 September 2017 08:12:01 PM IST by SUMO gui Version 0.30.0
<?xml version="1.0" encoding="UTF-8"?>

<configuration xmlns:xsi="http://www.w3.org/2001/XMLSchema-instance" xsi:noNamespaceSchemaLocation="http://sumo.dlr.de/xsd/sumoConfiguration.xsd">

    <input>
        <net-file value="hello.net.xml"/>
        <route-files value="hello.rou.xml"/>
        <additional-files value="hello.det.xml"/>
    </input>

    <output>
        <tripinfo-output value="tripinfo.xml"/>
    </output>

    <time>
        <begin value="0"/>
        <end value="10000"/>
    </time>

    <traci_server>
        <remote-port value="42388"/>
    </traci_server>

    <gui_only>
        <gui-settings-file value="hello.settings.xml"/>
    </gui_only>

</configuration>
-->

<tripinfos xmlns:xsi="http://www.w3.org/2001/XMLSchema-instance" xsi:noNamespaceSchemaLocation="http://sumo.dlr.de/xsd/tripinfo_file.xsd">
    <tripinfo id="type4.0" depart="3.00" departLane="down-up-1_0" departPos="5.10" departSpeed="0.00" departDelay="0.00" arrival="31.00" arrivalLane="down-up-2_0" arrivalPos="85.35" arrivalSpeed="13.90" duration="28.00" routeLength="194.90" waitSteps="0" timeLoss="13.39" rerouteNo="0" devices="tripinfo_type4.0" vType="Car" speedFactor="1.00" vaporized=""/>
    <tripinfo id="type4.1" depart="8.00" departLane="down-up-1_0" departPos="5.10" departSpeed="0.00" departDelay="1.00" arrival="37.00" arrivalLane="down-up-2_0" arrivalPos="85.35" arrivalSpeed="13.90" duration="29.00" routeLength="194.90" waitSteps="1" timeLoss="14.39" rerouteNo="0" devices="tripinfo_type4.1" vType="Car" speedFactor="1.00" vaporized=""/>
    <tripinfo id="type2.0" depart="11.00" departLane="up-down-1_0" departPos="5.10" departSpeed="0.00" departDelay="0.00" arrival="39.00" arrivalLane="up-down-2_0" arrivalPos="85.35" arrivalSpeed="13.90" duration="28.00" routeLength="194.90" waitSteps="0" timeLoss="13.39" rerouteNo="0" devices="tripinfo_type2.0" vType="Car" speedFactor="1.00" vaporized=""/>
    <tripinfo id="type1.3" depart="30.00" departLane="left-right-1_0" departPos="5.10" departSpeed="0.00" departDelay="0.00" arrival="58.00" arrivalLane="left-right-2_2" arrivalPos="85.35" arrivalSpeed="13.90" duration="28.00" routeLength="194.90" waitSteps="0" timeLoss="13.39" rerouteNo="0" devices="tripinfo_type1.3" vType="Car" speedFactor="1.00" vaporized=""/>
    <tripinfo id="type3.1" depart="25.00" departLane="right-left-1_0" departPos="5.10" departSpeed="0.00" departDelay="0.00" arrival="66.00" arrivalLane="right-left-2_1" arrivalPos="85.35" arrivalSpeed="11.00" duration="41.00" routeLength="194.90" waitSteps="1" timeLoss="26.19" rerouteNo="0" devices="tripinfo_type3.1" vType="Car" speedFactor="1.00" vaporized=""/>
    <tripinfo id="type1.1" depart="11.00" departLane="left-right-1_0" departPos="5.10" departSpeed="0.00" departDelay="0.00" arrival="66.00" arrivalLane="left-right-2_1" arrivalPos="85.35" arrivalSpeed="11.00" duration="55.00" routeLength="194.90" waitSteps="15" timeLoss="40.19" rerouteNo="0" devices="tripinfo_type1.1" vType="Car" speedFactor="1.00" vaporized=""/>
    <tripinfo id="type1.0" depart="1.00" departLane="left-right-1_0" departPos="5.10" departSpeed="0.00" departDelay="0.00" arrival="66.00" arrivalLane="left-right-2_0" arrivalPos="85.35" arrivalSpeed="11.00" duration="65.00" routeLength="194.90" waitSteps="25" timeLoss="50.19" rerouteNo="0" devices="tripinfo_type1.0" vType="Car" speedFactor="1.00" vaporized=""/>
    <tripinfo id="type3.0" depart="0.00" departLane="right-left-1_0" departPos="5.10" departSpeed="0.00" departDelay="0.00" arrival="66.00" arrivalLane="right-left-2_0" arrivalPos="85.35" arrivalSpeed="11.00" duration="66.00" routeLength="194.90" waitSteps="26" timeLoss="51.19" rerouteNo="0" devices="tripinfo_type3.0" vType="Car" speedFactor="1.00" vaporized=""/>
    <tripinfo id="type1.2" depart="21.00" departLane="left-right-1_0" departPos="5.10" departSpeed="0.00" departDelay="0.00" arrival="67.00" arrivalLane="left-right-2_0" arrivalPos="85.35" arrivalSpeed="11.00" duration="46.00" routeLength="194.90" waitSteps="7" timeLoss="31.72" rerouteNo="0" devices="tripinfo_type1.2" vType="Car" speedFactor="1.00" vaporized=""/>
    <tripinfo id="type3.2" depart="30.00" departLane="right-left-1_0" departPos="5.10" departSpeed="0.00" departDelay="0.00" arrival="67.00" arrivalLane="right-left-2_0" arrivalPos="85.35" arrivalSpeed="11.00" duration="37.00" routeLength="194.90" waitSteps="1" timeLoss="22.73" rerouteNo="0" devices="tripinfo_type3.2" vType="Car" speedFactor="1.00" vaporized=""/>
    <tripinfo id="type3.3" depart="36.00" departLane="right-left-1_0" departPos="5.10" departSpeed="0.00" departDelay="5.00" arrival="69.00" arrivalLane="right-left-2_0" arrivalPos="85.35" arrivalSpeed="11.50" duration="33.00" routeLength="194.90" waitSteps="1" timeLoss="18.44" rerouteNo="0" devices="tripinfo_type3.3" vType="Car" speedFactor="1.00" vaporized=""/>
    <tripinfo id="type3.4" depart="42.00" departLane="right-left-1_0" departPos="5.10" departSpeed="0.00" departDelay="9.00" arrival="71.00" arrivalLane="right-left-2_0" arrivalPos="85.35" arrivalSpeed="13.90" duration="29.00" routeLength="194.90" waitSteps="1" timeLoss="14.39" rerouteNo="0" devices="tripinfo_type3.4" vType="Car" speedFactor="1.00" vaporized=""/>
    <tripinfo id="type1.4" depart="49.00" departLane="left-right-1_0" departPos="5.10" departSpeed="0.00" departDelay="0.00" arrival="77.00" arrivalLane="left-right-2_0" arrivalPos="85.35" arrivalSpeed="13.90" duration="28.00" routeLength="194.90" waitSteps="0" timeLoss="13.39" rerouteNo="0" devices="tripinfo_type1.4" vType="Car" speedFactor="1.00" vaporized=""/>
    <tripinfo id="type3.5" depart="48.00" departLane="right-left-1_0" departPos="5.10" departSpeed="0.00" departDelay="5.00" arrival="77.00" arrivalLane="right-left-2_0" arrivalPos="85.35" arrivalSpeed="13.90" duration="29.00" routeLength="194.90" waitSteps="1" timeLoss="14.39" rerouteNo="0" devices="tripinfo_type3.5" vType="Car" speedFactor="1.00" vaporized=""/>
    <tripinfo id="type1.5" depart="54.00" departLane="left-right-1_0" departPos="5.10" departSpeed="0.00" departDelay="1.00" arrival="83.00" arrivalLane="left-right-2_0" arrivalPos="85.35" arrivalSpeed="13.90" duration="29.00" routeLength="194.90" waitSteps="1" timeLoss="14.39" rerouteNo="0" devices="tripinfo_type1.5" vType="Car" speedFactor="1.00" vaporized=""/>
    <tripinfo id="type3.6" depart="54.00" departLane="right-left-1_0" departPos="5.10" departSpeed="0.00" departDelay="4.00" arrival="83.00" arrivalLane="right-left-2_0" arrivalPos="85.35" arrivalSpeed="13.90" duration="29.00" routeLength="194.90" waitSteps="1" timeLoss="14.39" rerouteNo="0" devices="tripinfo_type3.6" vType="Car" speedFactor="1.00" vaporized=""/>
    <tripinfo id="type2.4" depart="75.00" departLane="up-down-1_0" departPos="5.10" departSpeed="0.00" departDelay="3.00" arrival="104.00" arrivalLane="up-down-2_2" arrivalPos="85.35" arrivalSpeed="13.90" duration="29.00" routeLength="194.90" waitSteps="1" timeLoss="14.39" rerouteNo="0" devices="tripinfo_type2.4" vType="Car" speedFactor="1.00" vaporized=""/>
    <tripinfo id="type4.8" depart="56.00" departLane="down-up-1_0" departPos="5.10" departSpeed="0.00" departDelay="5.00" arrival="111.00" arrivalLane="down-up-2_3" arrivalPos="85.35" arrivalSpeed="11.00" duration="55.00" routeLength="194.90" waitSteps="15" timeLoss="40.19" rerouteNo="0" devices="tripinfo_type4.8" vType="Car" speedFactor="1.00" vaporized=""/>
    <tripinfo id="type4.5" depart="32.00" departLane="down-up-1_0" departPos="5.10" departSpeed="0.00" departDelay="3.00" arrival="111.00" arrivalLane="down-up-2_2" arrivalPos="85.35" arrivalSpeed="11.00" duration="79.00" routeLength="194.90" waitSteps="39" timeLoss="64.19" rerouteNo="0" devices="tripinfo_type4.5" vType="Car" speedFactor="1.00" vaporized=""/>
    <tripinfo id="type2.2" depart="31.00" departLane="up-down-1_0" departPos="5.10" departSpeed="0.00" departDelay="0.00" arrival="111.00" arrivalLane="up-down-2_1" arrivalPos="85.35" arrivalSpeed="11.00" duration="80.00" routeLength="194.90" waitSteps="40" timeLoss="65.19" rerouteNo="0" devices="tripinfo_type2.2" vType="Car" speedFactor="1.00" vaporized=""/>
    <tripinfo id="type4.3" depart="20.00" departLane="down-up-1_0" departPos="5.10" departSpeed="0.00" departDelay="2.00" arrival="111.00" arrivalLane="down-up-2_1" arrivalPos="85.35" arrivalSpeed="11.00" duration="91.00" routeLength="194.90" waitSteps="51" timeLoss="76.19" rerouteNo="0" devices="tripinfo_type4.3" vType="Car" speedFactor="1.00" vaporized=""/>
    <tripinfo id="type2.1" depart="23.00" departLane="up-down-1_0" departPos="5.10" departSpeed="0.00" departDelay="0.00" arrival="111.00" arrivalLane="up-down-2_0" arrivalPos="85.35" arrivalSpeed="11.00" duration="88.00" routeLength="194.90" waitSteps="48" timeLoss="73.19" rerouteNo="0" devices="tripinfo_type2.1" vType="Car" speedFactor="1.00" vaporized=""/>
    <tripinfo id="type4.2" depart="14.00" departLane="down-up-1_0" departPos="5.10" departSpeed="0.00" departDelay="5.00" arrival="111.00" arrivalLane="down-up-2_0" arrivalPos="85.35" arrivalSpeed="11.00" duration="97.00" routeLength="194.90" waitSteps="57" timeLoss="82.19" rerouteNo="0" devices="tripinfo_type4.2" vType="Car" speedFactor="1.00" vaporized=""/>
    <tripinfo id="type4.9" depart="62.00" departLane="down-up-1_0" departPos="5.10" departSpeed="0.00" departDelay="7.00" arrival="112.00" arrivalLane="down-up-2_2" arrivalPos="85.35" arrivalSpeed="11.00" duration="50.00" routeLength="194.90" waitSteps="11" timeLoss="35.72" rerouteNo="0" devices="tripinfo_type4.9" vType="Car" speedFactor="1.00" vaporized=""/>
    <tripinfo id="type4.6" depart="45.00" departLane="down-up-1_0" departPos="5.10" departSpeed="0.00" departDelay="0.00" arrival="112.00" arrivalLane="down-up-2_1" arrivalPos="85.35" arrivalSpeed="11.00" duration="67.00" routeLength="194.90" waitSteps="28" timeLoss="52.70" rerouteNo="0" devices="tripinfo_type4.6" vType="Car" speedFactor="1.00" vaporized=""/>
    <tripinfo id="type2.3" depart="70.00" departLane="up-down-1_0" departPos="5.10" departSpeed="0.00" departDelay="0.00" arrival="112.00" arrivalLane="up-down-2_0" arrivalPos="85.35" arrivalSpeed="11.00" duration="42.00" routeLength="194.90" waitSteps="3" timeLoss="27.72" rerouteNo="0" devices="tripinfo_type2.3" vType="Car" speedFactor="1.00" vaporized=""/>
    <tripinfo id="type4.4" depart="27.00" departLane="down-up-1_0" departPos="5.10" departSpeed="0.00" departDelay="0.00" arrival="112.00" arrivalLane="down-up-2_0" arrivalPos="85.35" arrivalSpeed="11.00" duration="85.00" routeLength="194.90" waitSteps="46" timeLoss="70.68" rerouteNo="0" devices="tripinfo_type4.4" vType="Car" speedFactor="1.00" vaporized=""/>
    <tripinfo id="type4.10" depart="75.00" departLane="down-up-1_0" departPos="5.10" departSpeed="0.00" departDelay="0.00" arrival="114.00" arrivalLane="down-up-2_1" arrivalPos="85.35" arrivalSpeed="11.50" duration="39.00" routeLength="194.90" waitSteps="0" timeLoss="24.44" rerouteNo="0" devices="tripinfo_type4.10" vType="Car" speedFactor="1.00" vaporized=""/>
    <tripinfo id="type2.5" depart="81.00" departLane="up-down-1_0" departPos="5.10" departSpeed="0.00" departDelay="5.00" arrival="114.00" arrivalLane="up-down-2_0" arrivalPos="85.35" arrivalSpeed="11.50" duration="33.00" routeLength="194.90" waitSteps="1" timeLoss="18.44" rerouteNo="0" devices="tripinfo_type2.5" vType="Car" speedFactor="1.00" vaporized=""/>
    <tripinfo id="type4.7" depart="50.00" departLane="down-up-1_0" departPos="5.10" departSpeed="0.00" departDelay="2.00" arrival="114.00" arrivalLane="down-up-2_0" arrivalPos="85.35" arrivalSpeed="11.50" duration="64.00" routeLength="194.90" waitSteps="25" timeLoss="49.41" rerouteNo="0" devices="tripinfo_type4.7" vType="Car" speedFactor="1.00" vaporized=""/>
    <tripinfo id="type2.6" depart="87.00" departLane="up-down-1_0" departPos="5.10" departSpeed="0.00" departDelay="4.00" arrival="116.00" arrivalLane="up-down-2_0" arrivalPos="85.35" arrivalSpeed="13.90" duration="29.00" routeLength="194.90" waitSteps="1" timeLoss="14.39" rerouteNo="0" devices="tripinfo_type2.6" vType="Car" speedFactor="1.00" vaporized=""/>
    <tripinfo id="type4.11" depart="80.00" departLane="down-up-1_0" departPos="5.10" departSpeed="0.00" departDelay="2.00" arrival="116.00" arrivalLane="down-up-2_0" arrivalPos="85.35" arrivalSpeed="12.00" duration="36.00" routeLength="194.90" waitSteps="1" timeLoss="21.11" rerouteNo="0" devices="tripinfo_type4.11" vType="Car" speedFactor="1.00" vaporized=""/>
    <tripinfo id="type4.12" depart="86.00" departLane="down-up-1_0" departPos="5.10" departSpeed="0.00" departDelay="7.00" arrival="117.00" arrivalLane="down-up-2_0" arrivalPos="85.35" arrivalSpeed="12.00" duration="31.00" routeLength="194.90" waitSteps="1" timeLoss="16.66" rerouteNo="0" devices="tripinfo_type4.12" vType="Car" speedFactor="1.00" vaporized=""/>
    <tripinfo id="type4.13" depart="92.00" departLane="down-up-1_0" departPos="5.10" departSpeed="0.00" departDelay="12.00" arrival="121.00" arrivalLane="down-up-2_0" arrivalPos="85.35" arrivalSpeed="13.90" duration="29.00" routeLength="194.90" waitSteps="1" timeLoss="14.39" rerouteNo="0" devices="tripinfo_type4.13" vType="Car" speedFactor="1.00" vaporized=""/>
    <tripinfo id="type4.14" depart="98.00" departLane="down-up-1_0" departPos="5.10" departSpeed="0.00" departDelay="14.00" arrival="127.00" arrivalLane="down-up-2_0" arrivalPos="85.35" arrivalSpeed="13.90" duration="29.00" routeLength="194.90" waitSteps="1" timeLoss="14.39" rerouteNo="0" devices="tripinfo_type4.14" vType="Car" speedFactor="1.00" vaporized=""/>
    <tripinfo id="type2.7" depart="101.00" departLane="up-down-1_0" departPos="5.10" departSpeed="0.00" departDelay="0.00" arrival="129.00" arrivalLane="up-down-2_0" arrivalPos="85.35" arrivalSpeed="13.90" duration="28.00" routeLength="194.90" waitSteps="0" timeLoss="13.39" rerouteNo="0" devices="tripinfo_type2.7" vType="Car" speedFactor="1.00" vaporized=""/>
</tripinfos>
