<?xml version="1.0" encoding="UTF-8"?>

<!-- generated on Saturday 23 September 2017 09:38:46 PM IST by SUMO gui Version 0.30.0
<?xml version="1.0" encoding="UTF-8"?>

<configuration xmlns:xsi="http://www.w3.org/2001/XMLSchema-instance" xsi:noNamespaceSchemaLocation="http://sumo.dlr.de/xsd/sumoConfiguration.xsd">

    <input>
        <net-file value="hello.net.xml"/>
        <route-files value="hello.rou.xml"/>
    </input>

    <output>
        <tripinfo-output value="tripinfo.xml"/>
    </output>

    <time>
        <begin value="0"/>
        <end value="10000"/>
    </time>

    <traci_server>
        <remote-port value="53297"/>
    </traci_server>

    <gui_only>
        <gui-settings-file value="hello.settings.xml"/>
    </gui_only>

</configuration>
-->

<tripinfos xmlns:xsi="http://www.w3.org/2001/XMLSchema-instance" xsi:noNamespaceSchemaLocation="http://sumo.dlr.de/xsd/tripinfo_file.xsd">
    <tripinfo id="type4.0" depart="3.00" departLane="down-up-1_0" departPos="5.10" departSpeed="0.00" departDelay="0.00" arrival="31.00" arrivalLane="down-up-2_0" arrivalPos="85.35" arrivalSpeed="13.90" duration="28.00" routeLength="194.90" waitSteps="0" timeLoss="13.39" rerouteNo="0" devices="tripinfo_type4.0" vType="Car" speedFactor="1.00" vaporized=""/>
    <tripinfo id="type4.1" depart="8.00" departLane="down-up-1_0" departPos="5.10" departSpeed="0.00" departDelay="1.00" arrival="37.00" arrivalLane="down-up-2_0" arrivalPos="85.35" arrivalSpeed="13.90" duration="29.00" routeLength="194.90" waitSteps="1" timeLoss="14.39" rerouteNo="0" devices="tripinfo_type4.1" vType="Car" speedFactor="1.00" vaporized=""/>
    <tripinfo id="type2.0" depart="11.00" departLane="up-down-1_0" departPos="5.10" departSpeed="0.00" departDelay="0.00" arrival="39.00" arrivalLane="up-down-2_0" arrivalPos="85.35" arrivalSpeed="13.90" duration="28.00" routeLength="194.90" waitSteps="0" timeLoss="13.39" rerouteNo="0" devices="tripinfo_type2.0" vType="Car" speedFactor="1.00" vaporized=""/>
</tripinfos>
